********************************************************************************
*                       GENERAL UTILITY LATTICE PROGRAM                        *
*                        Julian Gale, Imperial College                         *
*                                  Version 1.3                                 *
********************************************************************************

  **** Warning - inter/intra/both directive given on potential line ****
  **** but the molecule directive is currently inactive             ****

  **** Warning - inter/intra/both directive given on potential line ****
  **** but the molecule directive is currently inactive             ****

  **** Warning - inter/intra/both directive given on potential line ****
  **** but the molecule directive is currently inactive             ****

**** Warning - inter/intra/both/bond directive given on potential line ****
**** but the molecule directive is currently inactive                  ****
*  optimise     - perform optimisation run                                     *
*  conp         - constant pressure calculation                                *
********************************************************************************
*  Zeolite X with occupancy info. P1.                                          *
* ordered 2in 2 out (i think!)                                                 *
********************************************************************************


  Number of CPUs =     1


  Total number of configurations input =   1

********************************************************************************
*  Input for Configuration =   1                                               *
********************************************************************************

  Formula = Si96Al96O384K96                                             

  Number of irreducible atoms/shells =   1056


  Total number atoms/shells =   1056

  Dimensionality = 3

  Symmetry :

  Crystal family                   :  Triclinic   
  Crystal class  (Groth - 1921)    :  Triclinic Pedial                     

  Space group (noncentrosymmetric) :  P 1             

  Patterson group                  :  P -1     

  Cartesian lattice vectors (Angstroms) :

       25.399856    0.000000    0.000000
        0.000000   25.340593    0.000000
        0.000000    0.000000   25.130961

  Cell parameters (Angstroms/Degrees):

  a =  25.3999    alpha =  90.0000
  b =  25.3406    beta  =  90.0000
  c =  25.1310    gamma =  90.0000

  Initial cell volume =  16175.478038 Angs**3

  Temperature of configuration =      0.000 K 

  Pressure of configuration =         0.000 GPa 

  Fractional coordinates of asymmetric unit :

--------------------------------------------------------------------------------
   No.  Atomic       x           y          z         Charge      Occupancy
        Label      (Frac)      (Frac)     (Frac)        (e)         (Frac)  
--------------------------------------------------------------------------------
     1  Si1   c    0.047700    0.371500    0.285000    4.000000    1.000000    
     2  Si1   c    0.047700 *  0.370826 *  0.466948 *  4.000000    1.000000    
     3  Si1   c    0.047700 *  0.871500 *  0.785000 *  4.000000    1.000000    
     4  Si1   c    0.047700 *  0.870826 *  0.966948 *  4.000000    1.000000    
     5  Si1   c    0.192855 *  0.371500 *  0.966948 *  4.000000    1.000000    
     6  Si1   c    0.192855 *  0.370826 *  0.785000 *  4.000000    1.000000    
     7  Si1   c    0.192855 *  0.871500 *  0.466948 *  4.000000    1.000000    
     8  Si1   c    0.192855 *  0.870826 *  0.285000 *  4.000000    1.000000    
     9  Si1   c    0.297700 *  0.121500 *  0.216948 *  4.000000    1.000000    
    10  Si1   c    0.297700 *  0.120826 *  0.035000 *  4.000000    1.000000    
    11  Si1   c    0.297700 *  0.621500 *  0.716948 *  4.000000    1.000000    
    12  Si1   c    0.297700 *  0.620826 *  0.535000 *  4.000000    1.000000    
    13  Si1   c    0.442855 *  0.121500 *  0.535000 *  4.000000    1.000000    
    14  Si1   c    0.442855 *  0.120826 *  0.716948 *  4.000000    1.000000    
    15  Si1   c    0.442855 *  0.621500 *  0.035000 *  4.000000    1.000000    
    16  Si1   c    0.442855 *  0.620826 *  0.216948 *  4.000000    1.000000    
    17  Si1   c    0.547700 *  0.371500 *  0.785000 *  4.000000    1.000000    
    18  Si1   c    0.547700 *  0.370826 *  0.966948 *  4.000000    1.000000    
    19  Si1   c    0.547700 *  0.871500 *  0.285000 *  4.000000    1.000000    
    20  Si1   c    0.547700 *  0.870826 *  0.466948 *  4.000000    1.000000    
    21  Si1   c    0.692855 *  0.371500 *  0.466948 *  4.000000    1.000000    
    22  Si1   c    0.692855 *  0.370826 *  0.285000 *  4.000000    1.000000    
    23  Si1   c    0.692855 *  0.871500 *  0.966948 *  4.000000    1.000000    
    24  Si1   c    0.692855 *  0.870826 *  0.785000 *  4.000000    1.000000    
    25  Si1   c    0.797700 *  0.121500 *  0.716948 *  4.000000    1.000000    
    26  Si1   c    0.797700 *  0.120826 *  0.535000 *  4.000000    1.000000    
    27  Si1   c    0.797700 *  0.621500 *  0.216948 *  4.000000    1.000000    
    28  Si1   c    0.797700 *  0.620826 *  0.035000 *  4.000000    1.000000    
    29  Si1   c    0.942855 *  0.121500 *  0.035000 *  4.000000    1.000000    
    30  Si1   c    0.942855 *  0.120826 *  0.216948 *  4.000000    1.000000    
    31  Si1   c    0.942855 *  0.621500 *  0.535000 *  4.000000    1.000000    
    32  Si1   c    0.942855 *  0.620826 *  0.716948 *  4.000000    1.000000    
    33  Si2   c    0.030977 *  0.301318 *  0.123550 *  4.000000    1.000000    
    34  Si2   c    0.030977 *  0.441009 *  0.628398 *  4.000000    1.000000    
    35  Si2   c    0.030977 *  0.801318 *  0.623550 *  4.000000    1.000000    
    36  Si2   c    0.030977 *  0.941009 *  0.128398 *  4.000000    1.000000    
    37  Si2   c    0.209578 *  0.301318 *  0.128398 *  4.000000    1.000000    
    38  Si2   c    0.209578 *  0.441009 *  0.623550 *  4.000000    1.000000    
    39  Si2   c    0.209578 *  0.801318 *  0.628398 *  4.000000    1.000000    
    40  Si2   c    0.209578 *  0.941009 *  0.123550 *  4.000000    1.000000    
    41  Si2   c    0.280977 *  0.051318 *  0.378398 *  4.000000    1.000000    
    42  Si2   c    0.280977 *  0.191009 *  0.873550 *  4.000000    1.000000    
    43  Si2   c    0.280977 *  0.551318 *  0.878398 *  4.000000    1.000000    
    44  Si2   c    0.280977 *  0.691009 *  0.373550 *  4.000000    1.000000    
    45  Si2   c    0.459578 *  0.051318 *  0.373550 *  4.000000    1.000000    
    46  Si2   c    0.459578 *  0.191009 *  0.878398 *  4.000000    1.000000    
    47  Si2   c    0.459578 *  0.551318 *  0.873550 *  4.000000    1.000000    
    48  Si2   c    0.459578 *  0.691009 *  0.378398 *  4.000000    1.000000    
    49  Si2   c    0.530977 *  0.301318 *  0.623550 *  4.000000    1.000000    
    50  Si2   c    0.530977 *  0.441009 *  0.128398 *  4.000000    1.000000    
    51  Si2   c    0.530977 *  0.801318 *  0.123550 *  4.000000    1.000000    
    52  Si2   c    0.530977 *  0.941009 *  0.628398 *  4.000000    1.000000    
    53  Si2   c    0.709578 *  0.301318 *  0.628398 *  4.000000    1.000000    
    54  Si2   c    0.709578 *  0.441009 *  0.123550 *  4.000000    1.000000    
    55  Si2   c    0.709578 *  0.801318 *  0.128398 *  4.000000    1.000000    
    56  Si2   c    0.709578 *  0.941009 *  0.623550 *  4.000000    1.000000    
    57  Si2   c    0.780977 *  0.051318 *  0.878398 *  4.000000    1.000000    
    58  Si2   c    0.780977 *  0.191009 *  0.373550 *  4.000000    1.000000    
    59  Si2   c    0.780977 *  0.551318 *  0.378398 *  4.000000    1.000000    
    60  Si2   c    0.780977 *  0.691009 *  0.873550 *  4.000000    1.000000    
    61  Si2   c    0.959578 *  0.051318 *  0.873550 *  4.000000    1.000000    
    62  Si2   c    0.959578 *  0.191009 *  0.378398 *  4.000000    1.000000    
    63  Si2   c    0.959578 *  0.551318 *  0.373550 *  4.000000    1.000000    
    64  Si2   c    0.959578 *  0.691009 *  0.878398 *  4.000000    1.000000    
    65  Si3   c    0.117937 *  0.030798 *  0.310135 *  4.000000    1.000000    
    66  Si3   c    0.117937 *  0.211529 *  0.941813 *  4.000000    1.000000    
    67  Si3   c    0.117937 *  0.530798 *  0.810135 *  4.000000    1.000000    
    68  Si3   c    0.117937 *  0.711529 *  0.441813 *  4.000000    1.000000    
    69  Si3   c    0.122619 *  0.030798 *  0.941813 *  4.000000    1.000000    
    70  Si3   c    0.122619 *  0.211529 *  0.310135 *  4.000000    1.000000    
    71  Si3   c    0.122619 *  0.530798 *  0.441813 *  4.000000    1.000000    
    72  Si3   c    0.122619 *  0.711529 *  0.810135 *  4.000000    1.000000    
    73  Si3   c    0.367937 *  0.280798 *  0.691813 *  4.000000    1.000000    
    74  Si3   c    0.367937 *  0.461529 *  0.060135 *  4.000000    1.000000    
    75  Si3   c    0.367937 *  0.780798 *  0.191813 *  4.000000    1.000000    
    76  Si3   c    0.367937 *  0.961529 *  0.560135 *  4.000000    1.000000    
    77  Si3   c    0.372619 *  0.280798 *  0.060135 *  4.000000    1.000000    
    78  Si3   c    0.372619 *  0.461529 *  0.691813 *  4.000000    1.000000    
    79  Si3   c    0.372619 *  0.780798 *  0.560135 *  4.000000    1.000000    
    80  Si3   c    0.372619 *  0.961529 *  0.191813 *  4.000000    1.000000    
    81  Si3   c    0.617937 *  0.030798 *  0.810135 *  4.000000    1.000000    
    82  Si3   c    0.617937 *  0.211529 *  0.441813 *  4.000000    1.000000    
    83  Si3   c    0.617937 *  0.530798 *  0.310135 *  4.000000    1.000000    
    84  Si3   c    0.617937 *  0.711529 *  0.941813 *  4.000000    1.000000    
    85  Si3   c    0.622619 *  0.030798 *  0.441813 *  4.000000    1.000000    
    86  Si3   c    0.622619 *  0.211529 *  0.810135 *  4.000000    1.000000    
    87  Si3   c    0.622619 *  0.530798 *  0.941813 *  4.000000    1.000000    
    88  Si3   c    0.622619 *  0.711529 *  0.310135 *  4.000000    1.000000    
    89  Si3   c    0.867937 *  0.280798 *  0.191813 *  4.000000    1.000000    
    90  Si3   c    0.867937 *  0.461529 *  0.560135 *  4.000000    1.000000    
    91  Si3   c    0.867937 *  0.780798 *  0.691813 *  4.000000    1.000000    
    92  Si3   c    0.867937 *  0.961529 *  0.060135 *  4.000000    1.000000    
    93  Si3   c    0.872619 *  0.280798 *  0.560135 *  4.000000    1.000000    
    94  Si3   c    0.872619 *  0.461529 *  0.191813 *  4.000000    1.000000    
    95  Si3   c    0.872619 *  0.780798 *  0.060135 *  4.000000    1.000000    
    96  Si3   c    0.872619 *  0.961529 *  0.691813 *  4.000000    1.000000    
    97  Al1   c    0.049800 *  0.282425 *  0.376815 *  3.000000    1.000000    
    98  Al1   c    0.049800 *  0.459901 *  0.375133 *  3.000000    1.000000    
    99  Al1   c    0.049800 *  0.782425 *  0.876815 *  3.000000    1.000000    
   100  Al1   c    0.049800 *  0.959901 *  0.875133 *  3.000000    1.000000    
   101  Al1   c    0.190755 *  0.282425 *  0.875133 *  3.000000    1.000000    
   102  Al1   c    0.190755 *  0.459901 *  0.876815 *  3.000000    1.000000    
   103  Al1   c    0.190755 *  0.782425 *  0.375133 *  3.000000    1.000000    
   104  Al1   c    0.190755 *  0.959901 *  0.376815 *  3.000000    1.000000    
   105  Al1   c    0.299800 *  0.032425 *  0.125133 *  3.000000    1.000000    
   106  Al1   c    0.299800 *  0.209901 *  0.126815 *  3.000000    1.000000    
   107  Al1   c    0.299800 *  0.532425 *  0.625133 *  3.000000    1.000000    
   108  Al1   c    0.299800 *  0.709901 *  0.626815 *  3.000000    1.000000    
   109  Al1   c    0.440755 *  0.032425 *  0.626815 *  3.000000    1.000000    
   110  Al1   c    0.440755 *  0.209901 *  0.625133 *  3.000000    1.000000    
   111  Al1   c    0.440755 *  0.532425 *  0.126815 *  3.000000    1.000000    
   112  Al1   c    0.440755 *  0.709901 *  0.125133 *  3.000000    1.000000    
   113  Al1   c    0.549800 *  0.282425 *  0.876815 *  3.000000    1.000000    
   114  Al1   c    0.549800 *  0.459901 *  0.875133 *  3.000000    1.000000    
   115  Al1   c    0.549800 *  0.782425 *  0.376815 *  3.000000    1.000000    
   116  Al1   c    0.549800 *  0.959901 *  0.375133 *  3.000000    1.000000    
   117  Al1   c    0.690755 *  0.282425 *  0.375133 *  3.000000    1.000000    
   118  Al1   c    0.690755 *  0.459901 *  0.376815 *  3.000000    1.000000    
   119  Al1   c    0.690755 *  0.782425 *  0.875133 *  3.000000    1.000000    
   120  Al1   c    0.690755 *  0.959901 *  0.876815 *  3.000000    1.000000    
   121  Al1   c    0.799800 *  0.032425 *  0.625133 *  3.000000    1.000000    
   122  Al1   c    0.799800 *  0.209901 *  0.626815 *  3.000000    1.000000    
   123  Al1   c    0.799800 *  0.532425 *  0.125133 *  3.000000    1.000000    
   124  Al1   c    0.799800 *  0.709901 *  0.126815 *  3.000000    1.000000    
   125  Al1   c    0.940755 *  0.032425 *  0.126815 *  3.000000    1.000000    
   126  Al1   c    0.940755 *  0.209901 *  0.125133 *  3.000000    1.000000    
   127  Al1   c    0.940755 *  0.532425 *  0.626815 *  3.000000    1.000000    
   128  Al1   c    0.940755 *  0.709901 *  0.625133 *  3.000000    1.000000    
   129  Al2   c    0.118880 *  0.299227 *  0.215528 *  3.000000    1.000000    
   130  Al2   c    0.118880 *  0.443099 *  0.536420 *  3.000000    1.000000    
   131  Al2   c    0.118880 *  0.799227 *  0.715528 *  3.000000    1.000000    
   132  Al2   c    0.118880 *  0.943099 *  0.036420 *  3.000000    1.000000    
   133  Al2   c    0.121675 *  0.299227 *  0.036420 *  3.000000    1.000000    
   134  Al2   c    0.121675 *  0.443099 *  0.715528 *  3.000000    1.000000    
   135  Al2   c    0.121675 *  0.799227 *  0.536420 *  3.000000    1.000000    
   136  Al2   c    0.121675 *  0.943099 *  0.215528 *  3.000000    1.000000    
   137  Al2   c    0.368880 *  0.049227 *  0.286420 *  3.000000    1.000000    
   138  Al2   c    0.368880 *  0.193099 *  0.965528 *  3.000000    1.000000    
   139  Al2   c    0.368880 *  0.549227 *  0.786420 *  3.000000    1.000000    
   140  Al2   c    0.368880 *  0.693099 *  0.465528 *  3.000000    1.000000    
   141  Al2   c    0.371675 *  0.049227 *  0.465528 *  3.000000    1.000000    
   142  Al2   c    0.371675 *  0.193099 *  0.786420 *  3.000000    1.000000    
   143  Al2   c    0.371675 *  0.549227 *  0.965528 *  3.000000    1.000000    
   144  Al2   c    0.371675 *  0.693099 *  0.286420 *  3.000000    1.000000    
   145  Al2   c    0.618880 *  0.299227 *  0.715528 *  3.000000    1.000000    
   146  Al2   c    0.618880 *  0.443099 *  0.036420 *  3.000000    1.000000    
   147  Al2   c    0.618880 *  0.799227 *  0.215528 *  3.000000    1.000000    
   148  Al2   c    0.618880 *  0.943099 *  0.536420 *  3.000000    1.000000    
   149  Al2   c    0.621675 *  0.299227 *  0.536420 *  3.000000    1.000000    
   150  Al2   c    0.621675 *  0.443099 *  0.215528 *  3.000000    1.000000    
   151  Al2   c    0.621675 *  0.799227 *  0.036420 *  3.000000    1.000000    
   152  Al2   c    0.621675 *  0.943099 *  0.715528 *  3.000000    1.000000    
   153  Al2   c    0.868880 *  0.049227 *  0.786420 *  3.000000    1.000000    
   154  Al2   c    0.868880 *  0.193099 *  0.465528 *  3.000000    1.000000    
   155  Al2   c    0.868880 *  0.549227 *  0.286420 *  3.000000    1.000000    
   156  Al2   c    0.868880 *  0.693099 *  0.965528 *  3.000000    1.000000    
   157  Al2   c    0.871675 *  0.049227 *  0.965528 *  3.000000    1.000000    
   158  Al2   c    0.871675 *  0.193099 *  0.286420 *  3.000000    1.000000    
   159  Al2   c    0.871675 *  0.549227 *  0.465528 *  3.000000    1.000000    
   160  Al2   c    0.871675 *  0.693099 *  0.786420 *  3.000000    1.000000    
   161  Al3   c    0.032228 *  0.120624 *  0.310417 *  3.000000    1.000000    
   162  Al3   c    0.032228 *  0.121702 *  0.941531 *  3.000000    1.000000    
   163  Al3   c    0.032228 *  0.620624 *  0.810417 *  3.000000    1.000000    
   164  Al3   c    0.032228 *  0.621702 *  0.441531 *  3.000000    1.000000    
   165  Al3   c    0.208328 *  0.120624 *  0.941531 *  3.000000    1.000000    
   166  Al3   c    0.208328 *  0.121702 *  0.310417 *  3.000000    1.000000    
   167  Al3   c    0.208328 *  0.620624 *  0.441531 *  3.000000    1.000000    
   168  Al3   c    0.208328 *  0.621702 *  0.810417 *  3.000000    1.000000    
   169  Al3   c    0.282228 *  0.370624 *  0.691531 *  3.000000    1.000000    
   170  Al3   c    0.282228 *  0.371702 *  0.060417 *  3.000000    1.000000    
   171  Al3   c    0.282228 *  0.870624 *  0.191531 *  3.000000    1.000000    
   172  Al3   c    0.282228 *  0.871702 *  0.560417 *  3.000000    1.000000    
   173  Al3   c    0.458328 *  0.370624 *  0.060417 *  3.000000    1.000000    
   174  Al3   c    0.458328 *  0.371702 *  0.691531 *  3.000000    1.000000    
   175  Al3   c    0.458328 *  0.870624 *  0.560417 *  3.000000    1.000000    
   176  Al3   c    0.458328 *  0.871702 *  0.191531 *  3.000000    1.000000    
   177  Al3   c    0.532228 *  0.120624 *  0.810417 *  3.000000    1.000000    
   178  Al3   c    0.532228 *  0.121702 *  0.441531 *  3.000000    1.000000    
   179  Al3   c    0.532228 *  0.620624 *  0.310417 *  3.000000    1.000000    
   180  Al3   c    0.532228 *  0.621702 *  0.941531 *  3.000000    1.000000    
   181  Al3   c    0.708328 *  0.120624 *  0.441531 *  3.000000    1.000000    
   182  Al3   c    0.708328 *  0.121702 *  0.810417 *  3.000000    1.000000    
   183  Al3   c    0.708328 *  0.620624 *  0.941531 *  3.000000    1.000000    
   184  Al3   c    0.708328 *  0.621702 *  0.310417 *  3.000000    1.000000    
   185  Al3   c    0.782228 *  0.370624 *  0.191531 *  3.000000    1.000000    
   186  Al3   c    0.782228 *  0.371702 *  0.560417 *  3.000000    1.000000    
   187  Al3   c    0.782228 *  0.870624 *  0.691531 *  3.000000    1.000000    
   188  Al3   c    0.782228 *  0.871702 *  0.060417 *  3.000000    1.000000    
   189  Al3   c    0.958328 *  0.370624 *  0.560417 *  3.000000    1.000000    
   190  Al3   c    0.958328 *  0.371702 *  0.191531 *  3.000000    1.000000    
   191  Al3   c    0.958328 *  0.870624 *  0.060417 *  3.000000    1.000000    
   192  Al3   c    0.958328 *  0.871702 *  0.691531 *  3.000000    1.000000    
   193  O2    c    0.108029 *  0.250889 *  0.358794 *  0.869020    1.000000    
   194  O2    c    0.108029 *  0.491438 *  0.393154 *  0.869020    1.000000    
   195  O2    c    0.108029 *  0.750889 *  0.858794 *  0.869020    1.000000    
   196  O2    c    0.108029 *  0.991438 *  0.893154 *  0.869020    1.000000    
   197  O2    c    0.132527 *  0.250889 *  0.893154 *  0.869020    1.000000    
   198  O2    c    0.132527 *  0.491438 *  0.858794 *  0.869020    1.000000    
   199  O2    c    0.132527 *  0.750889 *  0.393154 *  0.869020    1.000000    
   200  O2    c    0.132527 *  0.991438 *  0.358794 *  0.869020    1.000000    
   201  O2    c    0.358029 *  0.000889 *  0.143154 *  0.869020    1.000000    
   202  O2    c    0.358029 *  0.241438 *  0.108794 *  0.869020    1.000000    
   203  O2    c    0.358029 *  0.500889 *  0.643154 *  0.869020    1.000000    
   204  O2    c    0.358029 *  0.741438 *  0.608794 *  0.869020    1.000000    
   205  O2    c    0.382527 *  0.000889 *  0.608794 *  0.869020    1.000000    
   206  O2    c    0.382527 *  0.241438 *  0.643154 *  0.869020    1.000000    
   207  O2    c    0.382527 *  0.500889 *  0.108794 *  0.869020    1.000000    
   208  O2    c    0.382527 *  0.741438 *  0.143154 *  0.869020    1.000000    
   209  O2    c    0.608029 *  0.250889 *  0.858794 *  0.869020    1.000000    
   210  O2    c    0.608029 *  0.491438 *  0.893154 *  0.869020    1.000000    
   211  O2    c    0.608029 *  0.750889 *  0.358794 *  0.869020    1.000000    
   212  O2    c    0.608029 *  0.991438 *  0.393154 *  0.869020    1.000000    
   213  O2    c    0.632527 *  0.250889 *  0.393154 *  0.869020    1.000000    
   214  O2    c    0.632527 *  0.491438 *  0.358794 *  0.869020    1.000000    
   215  O2    c    0.632527 *  0.750889 *  0.893154 *  0.869020    1.000000    
   216  O2    c    0.632527 *  0.991438 *  0.858794 *  0.869020    1.000000    
   217  O2    c    0.858029 *  0.000889 *  0.643154 *  0.869020    1.000000    
   218  O2    c    0.858029 *  0.241438 *  0.608794 *  0.869020    1.000000    
   219  O2    c    0.858029 *  0.500889 *  0.143154 *  0.869020    1.000000    
   220  O2    c    0.858029 *  0.741438 *  0.108794 *  0.869020    1.000000    
   221  O2    c    0.882527 *  0.000889 *  0.108794 *  0.869020    1.000000    
   222  O2    c    0.882527 *  0.241438 *  0.143154 *  0.869020    1.000000    
   223  O2    c    0.882527 *  0.500889 *  0.608794 *  0.869020    1.000000    
   224  O2    c    0.882527 *  0.741438 *  0.643154 *  0.869020    1.000000    
   225  O2    c    0.099638 *  0.355489 *  0.250874 *  0.869020    1.000000    
   226  O2    c    0.099638 *  0.386838 *  0.501074 *  0.869020    1.000000    
   227  O2    c    0.099638 *  0.855489 *  0.750874 *  0.869020    1.000000    
   228  O2    c    0.099638 *  0.886838 *  0.001074 *  0.869020    1.000000    
   229  O2    c    0.140918 *  0.355489 *  0.001074 *  0.869020    1.000000    
   230  O2    c    0.140918 *  0.386838 *  0.750874 *  0.869020    1.000000    
   231  O2    c    0.140918 *  0.855489 *  0.501074 *  0.869020    1.000000    
   232  O2    c    0.140918 *  0.886838 *  0.250874 *  0.869020    1.000000    
   233  O2    c    0.349638 *  0.105489 *  0.251074 *  0.869020    1.000000    
   234  O2    c    0.349638 *  0.136838 *  0.000874 *  0.869020    1.000000    
   235  O2    c    0.349638 *  0.605489 *  0.751074 *  0.869020    1.000000    
   236  O2    c    0.349638 *  0.636838 *  0.500874 *  0.869020    1.000000    
   237  O2    c    0.390918 *  0.105489 *  0.500874 *  0.869020    1.000000    
   238  O2    c    0.390918 *  0.136838 *  0.751074 *  0.869020    1.000000    
   239  O2    c    0.390918 *  0.605489 *  0.000874 *  0.869020    1.000000    
   240  O2    c    0.390918 *  0.636838 *  0.251074 *  0.869020    1.000000    
   241  O2    c    0.599638 *  0.355489 *  0.750874 *  0.869020    1.000000    
   242  O2    c    0.599638 *  0.386838 *  0.001074 *  0.869020    1.000000    
   243  O2    c    0.599638 *  0.855489 *  0.250874 *  0.869020    1.000000    
   244  O2    c    0.599638 *  0.886838 *  0.501074 *  0.869020    1.000000    
   245  O2    c    0.640918 *  0.355489 *  0.501074 *  0.869020    1.000000    
   246  O2    c    0.640918 *  0.386838 *  0.250874 *  0.869020    1.000000    
   247  O2    c    0.640918 *  0.855489 *  0.001074 *  0.869020    1.000000    
   248  O2    c    0.640918 *  0.886838 *  0.750874 *  0.869020    1.000000    
   249  O2    c    0.849638 *  0.105489 *  0.751074 *  0.869020    1.000000    
   250  O2    c    0.849638 *  0.136838 *  0.500874 *  0.869020    1.000000    
   251  O2    c    0.849638 *  0.605489 *  0.251074 *  0.869020    1.000000    
   252  O2    c    0.849638 *  0.636838 *  0.000874 *  0.869020    1.000000    
   253  O2    c    0.890918 *  0.105489 *  0.000874 *  0.869020    1.000000    
   254  O2    c    0.890918 *  0.136838 *  0.251074 *  0.869020    1.000000    
   255  O2    c    0.890918 *  0.605489 *  0.500874 *  0.869020    1.000000    
   256  O2    c    0.890918 *  0.636838 *  0.751074 *  0.869020    1.000000    
   257  O2    c    0.000951 *  0.355039 *  0.139852 *  0.869020    1.000000    
   258  O2    c    0.000951 *  0.387287 *  0.612097 *  0.869020    1.000000    
   259  O2    c    0.000951 *  0.855039 *  0.639852 *  0.869020    1.000000    
   260  O2    c    0.000951 *  0.887287 *  0.112096 *  0.869020    1.000000    
   261  O2    c    0.239604 *  0.355039 *  0.112096 *  0.869020    1.000000    
   262  O2    c    0.239604 *  0.387287 *  0.639852 *  0.869020    1.000000    
   263  O2    c    0.239604 *  0.855039 *  0.612097 *  0.869020    1.000000    
   264  O2    c    0.239604 *  0.887287 *  0.139852 *  0.869020    1.000000    
   265  O2    c    0.250951 *  0.105039 *  0.362096 *  0.869020    1.000000    
   266  O2    c    0.250951 *  0.137287 *  0.889852 *  0.869020    1.000000    
   267  O2    c    0.250951 *  0.605039 *  0.862097 *  0.869020    1.000000    
   268  O2    c    0.250951 *  0.637287 *  0.389852 *  0.869020    1.000000    
   269  O2    c    0.489604 *  0.105039 *  0.389852 *  0.869020    1.000000    
   270  O2    c    0.489604 *  0.137287 *  0.862097 *  0.869020    1.000000    
   271  O2    c    0.489604 *  0.605039 *  0.889852 *  0.869020    1.000000    
   272  O2    c    0.489604 *  0.637287 *  0.362096 *  0.869020    1.000000    
   273  O2    c    0.500951 *  0.355039 *  0.639852 *  0.869020    1.000000    
   274  O2    c    0.500951 *  0.387287 *  0.112096 *  0.869020    1.000000    
   275  O2    c    0.500951 *  0.855039 *  0.139852 *  0.869020    1.000000    
   276  O2    c    0.500951 *  0.887287 *  0.612097 *  0.869020    1.000000    
   277  O2    c    0.739604 *  0.355039 *  0.612097 *  0.869020    1.000000    
   278  O2    c    0.739604 *  0.387287 *  0.139852 *  0.869020    1.000000    
   279  O2    c    0.739604 *  0.855039 *  0.112096 *  0.869020    1.000000    
   280  O2    c    0.739604 *  0.887287 *  0.639852 *  0.869020    1.000000    
   281  O2    c    0.750951 *  0.105039 *  0.862097 *  0.869020    1.000000    
   282  O2    c    0.750951 *  0.137287 *  0.389852 *  0.869020    1.000000    
   283  O2    c    0.750951 *  0.605039 *  0.362096 *  0.869020    1.000000    
   284  O2    c    0.750951 *  0.637287 *  0.889852 *  0.869020    1.000000    
   285  O2    c    0.989604 *  0.105039 *  0.889852 *  0.869020    1.000000    
   286  O2    c    0.989604 *  0.137287 *  0.362096 *  0.869020    1.000000    
   287  O2    c    0.989604 *  0.605039 *  0.389852 *  0.869020    1.000000    
   288  O2    c    0.989604 *  0.637287 *  0.862097 *  0.869020    1.000000    
   289  O2    c    0.999017 *  0.003015 *  0.860867 *  0.869020    1.000000    
   290  O2    c    0.999017 *  0.239311 *  0.391081 *  0.869020    1.000000    
   291  O2    c    0.999017 *  0.503015 *  0.360867 *  0.869020    1.000000    
   292  O2    c    0.999017 *  0.739311 *  0.891081 *  0.869020    1.000000    
   293  O2    c    0.241539 *  0.003015 *  0.391081 *  0.869020    1.000000    
   294  O2    c    0.241539 *  0.239311 *  0.860867 *  0.869020    1.000000    
   295  O2    c    0.241539 *  0.503015 *  0.891081 *  0.869020    1.000000    
   296  O2    c    0.241539 *  0.739311 *  0.360867 *  0.869020    1.000000    
   297  O2    c    0.249016 *  0.253015 *  0.141081 *  0.869020    1.000000    
   298  O2    c    0.249016 *  0.489311 *  0.610867 *  0.869020    1.000000    
   299  O2    c    0.249016 *  0.753015 *  0.641081 *  0.869020    1.000000    
   300  O2    c    0.249016 *  0.989311 *  0.110867 *  0.869020    1.000000    
   301  O2    c    0.491539 *  0.253015 *  0.610867 *  0.869020    1.000000    
   302  O2    c    0.491539 *  0.489311 *  0.141081 *  0.869020    1.000000    
   303  O2    c    0.491539 *  0.753015 *  0.110867 *  0.869020    1.000000    
   304  O2    c    0.491539 *  0.989311 *  0.641081 *  0.869020    1.000000    
   305  O2    c    0.499016 *  0.003015 *  0.360867 *  0.869020    1.000000    
   306  O2    c    0.499016 *  0.239311 *  0.891081 *  0.869020    1.000000    
   307  O2    c    0.499016 *  0.503015 *  0.860867 *  0.869020    1.000000    
   308  O2    c    0.499016 *  0.739311 *  0.391081 *  0.869020    1.000000    
   309  O2    c    0.741539 *  0.003015 *  0.891081 *  0.869020    1.000000    
   310  O2    c    0.741539 *  0.239311 *  0.360867 *  0.869020    1.000000    
   311  O2    c    0.741539 *  0.503015 *  0.391081 *  0.869020    1.000000    
   312  O2    c    0.741539 *  0.739311 *  0.860867 *  0.869020    1.000000    
   313  O2    c    0.749016 *  0.253015 *  0.641081 *  0.869020    1.000000    
   314  O2    c    0.749016 *  0.489311 *  0.110867 *  0.869020    1.000000    
   315  O2    c    0.749016 *  0.753015 *  0.141081 *  0.869020    1.000000    
   316  O2    c    0.749016 *  0.989311 *  0.610867 *  0.869020    1.000000    
   317  O2    c    0.991539 *  0.253015 *  0.110867 *  0.869020    1.000000    
   318  O2    c    0.991539 *  0.489311 *  0.641081 *  0.869020    1.000000    
   319  O2    c    0.991539 *  0.753015 *  0.610867 *  0.869020    1.000000    
   320  O2    c    0.991539 *  0.989311 *  0.141081 *  0.869020    1.000000    
   321  O2    c    0.107568 *  0.995392 *  0.257055 *  0.869020    1.000000    
   322  O2    c    0.107568 *  0.246935 *  0.994893 *  0.869020    1.000000    
   323  O2    c    0.107568 *  0.495391 *  0.757055 *  0.869020    1.000000    
   324  O2    c    0.107568 *  0.746935 *  0.494893 *  0.869020    1.000000    
   325  O2    c    0.132988 *  0.995392 *  0.994893 *  0.869020    1.000000    
   326  O2    c    0.132988 *  0.246935 *  0.257055 *  0.869020    1.000000    
   327  O2    c    0.132988 *  0.495391 *  0.494893 *  0.869020    1.000000    
   328  O2    c    0.132988 *  0.746935 *  0.757055 *  0.869020    1.000000    
   329  O2    c    0.357568 *  0.245391 *  0.744893 *  0.869020    1.000000    
   330  O2    c    0.357568 *  0.496935 *  0.007055 *  0.869020    1.000000    
   331  O2    c    0.357568 *  0.745391 *  0.244893 *  0.869020    1.000000    
   332  O2    c    0.357568 *  0.996936 *  0.507055 *  0.869020    1.000000    
   333  O2    c    0.382988 *  0.245391 *  0.007055 *  0.869020    1.000000    
   334  O2    c    0.382988 *  0.496935 *  0.744893 *  0.869020    1.000000    
   335  O2    c    0.382988 *  0.745391 *  0.507055 *  0.869020    1.000000    
   336  O2    c    0.382988 *  0.996936 *  0.244893 *  0.869020    1.000000    
   337  O2    c    0.607568 *  0.995392 *  0.757055 *  0.869020    1.000000    
   338  O2    c    0.607568 *  0.246935 *  0.494893 *  0.869020    1.000000    
   339  O2    c    0.607568 *  0.495391 *  0.257055 *  0.869020    1.000000    
   340  O2    c    0.607568 *  0.746935 *  0.994893 *  0.869020    1.000000    
   341  O2    c    0.632988 *  0.995392 *  0.494893 *  0.869020    1.000000    
   342  O2    c    0.632988 *  0.246935 *  0.757055 *  0.869020    1.000000    
   343  O2    c    0.632988 *  0.495391 *  0.994893 *  0.869020    1.000000    
   344  O2    c    0.632988 *  0.746935 *  0.257055 *  0.869020    1.000000    
   345  O2    c    0.857568 *  0.245391 *  0.244893 *  0.869020    1.000000    
   346  O2    c    0.857568 *  0.496935 *  0.507055 *  0.869020    1.000000    
   347  O2    c    0.857568 *  0.745391 *  0.744893 *  0.869020    1.000000    
   348  O2    c    0.857568 *  0.996936 *  0.007055 *  0.869020    1.000000    
   349  O2    c    0.882988 *  0.245391 *  0.507055 *  0.869020    1.000000    
   350  O2    c    0.882988 *  0.496935 *  0.244893 *  0.869020    1.000000    
   351  O2    c    0.882988 *  0.745391 *  0.007055 *  0.869020    1.000000    
   352  O2    c    0.882988 *  0.996936 *  0.744893 *  0.869020    1.000000    
   353  O2    c    0.992841 *  0.108660 *  0.254504 *  0.869020    1.000000    
   354  O2    c    0.992841 *  0.133667 *  0.997445 *  0.869020    1.000000    
   355  O2    c    0.992841 *  0.608660 *  0.754504 *  0.869020    1.000000    
   356  O2    c    0.992841 *  0.633667 *  0.497445 *  0.869020    1.000000    
   357  O2    c    0.247715 *  0.108660 *  0.997445 *  0.869020    1.000000    
   358  O2    c    0.247715 *  0.133667 *  0.254504 *  0.869020    1.000000    
   359  O2    c    0.247715 *  0.608660 *  0.497445 *  0.869020    1.000000    
   360  O2    c    0.247715 *  0.633667 *  0.754504 *  0.869020    1.000000    
   361  O2    c    0.242841 *  0.358660 *  0.747445 *  0.869020    1.000000    
   362  O2    c    0.242841 *  0.383667 *  0.004504 *  0.869020    1.000000    
   363  O2    c    0.242841 *  0.858660 *  0.247445 *  0.869020    1.000000    
   364  O2    c    0.242841 *  0.883667 *  0.504504 *  0.869020    1.000000    
   365  O2    c    0.497715 *  0.358660 *  0.004504 *  0.869020    1.000000    
   366  O2    c    0.497715 *  0.383667 *  0.747445 *  0.869020    1.000000    
   367  O2    c    0.497715 *  0.858660 *  0.504504 *  0.869020    1.000000    
   368  O2    c    0.497715 *  0.883667 *  0.247445 *  0.869020    1.000000    
   369  O2    c    0.492841 *  0.108660 *  0.754504 *  0.869020    1.000000    
   370  O2    c    0.492841 *  0.133667 *  0.497445 *  0.869020    1.000000    
   371  O2    c    0.492841 *  0.608660 *  0.254504 *  0.869020    1.000000    
   372  O2    c    0.492841 *  0.633667 *  0.997445 *  0.869020    1.000000    
   373  O2    c    0.747715 *  0.108660 *  0.497445 *  0.869020    1.000000    
   374  O2    c    0.747715 *  0.133667 *  0.754504 *  0.869020    1.000000    
   375  O2    c    0.747715 *  0.608660 *  0.997445 *  0.869020    1.000000    
   376  O2    c    0.747715 *  0.633667 *  0.254504 *  0.869020    1.000000    
   377  O2    c    0.742841 *  0.358660 *  0.247445 *  0.869020    1.000000    
   378  O2    c    0.742841 *  0.383667 *  0.504504 *  0.869020    1.000000    
   379  O2    c    0.742841 *  0.858660 *  0.747445 *  0.869020    1.000000    
   380  O2    c    0.742841 *  0.883667 *  0.004504 *  0.869020    1.000000    
   381  O2    c    0.997715 *  0.358660 *  0.504504 *  0.869020    1.000000    
   382  O2    c    0.997715 *  0.383667 *  0.247445 *  0.869020    1.000000    
   383  O2    c    0.997715 *  0.858660 *  0.004504 *  0.869020    1.000000    
   384  O2    c    0.997715 *  0.883667 *  0.747445 *  0.869020    1.000000    
   385  O2    c    0.031572 *  0.324073 *  0.325015 *  0.869020    1.000000    
   386  O2    c    0.031572 *  0.418254 *  0.426933 *  0.869020    1.000000    
   387  O2    c    0.031572 *  0.824073 *  0.825015 *  0.869020    1.000000    
   388  O2    c    0.031572 *  0.918254 *  0.926933 *  0.869020    1.000000    
   389  O2    c    0.208983 *  0.324073 *  0.926933 *  0.869020    1.000000    
   390  O2    c    0.208983 *  0.418254 *  0.825015 *  0.869020    1.000000    
   391  O2    c    0.208983 *  0.824073 *  0.426933 *  0.869020    1.000000    
   392  O2    c    0.208983 *  0.918254 *  0.325015 *  0.869020    1.000000    
   393  O2    c    0.281572 *  0.074073 *  0.176933 *  0.869020    1.000000    
   394  O2    c    0.281572 *  0.168254 *  0.075015 *  0.869020    1.000000    
   395  O2    c    0.281572 *  0.574073 *  0.676933 *  0.869020    1.000000    
   396  O2    c    0.281572 *  0.668254 *  0.575015 *  0.869020    1.000000    
   397  O2    c    0.458983 *  0.074073 *  0.575015 *  0.869020    1.000000    
   398  O2    c    0.458983 *  0.168254 *  0.676933 *  0.869020    1.000000    
   399  O2    c    0.458983 *  0.574073 *  0.075015 *  0.869020    1.000000    
   400  O2    c    0.458983 *  0.668254 *  0.176933 *  0.869020    1.000000    
   401  O2    c    0.531572 *  0.324073 *  0.825015 *  0.869020    1.000000    
   402  O2    c    0.531572 *  0.418254 *  0.926933 *  0.869020    1.000000    
   403  O2    c    0.531572 *  0.824073 *  0.325015 *  0.869020    1.000000    
   404  O2    c    0.531572 *  0.918254 *  0.426933 *  0.869020    1.000000    
   405  O2    c    0.708983 *  0.324073 *  0.426933 *  0.869020    1.000000    
   406  O2    c    0.708983 *  0.418254 *  0.325015 *  0.869020    1.000000    
   407  O2    c    0.708983 *  0.824073 *  0.926933 *  0.869020    1.000000    
   408  O2    c    0.708983 *  0.918254 *  0.825015 *  0.869020    1.000000    
   409  O2    c    0.781572 *  0.074073 *  0.676933 *  0.869020    1.000000    
   410  O2    c    0.781572 *  0.168254 *  0.575015 *  0.869020    1.000000    
   411  O2    c    0.781572 *  0.574073 *  0.176933 *  0.869020    1.000000    
   412  O2    c    0.781572 *  0.668254 *  0.075015 *  0.869020    1.000000    
   413  O2    c    0.958983 *  0.074073 *  0.075015 *  0.869020    1.000000    
   414  O2    c    0.958983 *  0.168254 *  0.176933 *  0.869020    1.000000    
   415  O2    c    0.958983 *  0.574073 *  0.575015 *  0.869020    1.000000    
   416  O2    c    0.958983 *  0.668254 *  0.676933 *  0.869020    1.000000    
   417  O2    c    0.069073 *  0.282185 *  0.171598 *  0.869020    1.000000    
   418  O2    c    0.069073 *  0.460142 *  0.580350 *  0.869020    1.000000    
   419  O2    c    0.069073 *  0.782185 *  0.671598 *  0.869020    1.000000    
   420  O2    c    0.069073 *  0.960142 *  0.080350 *  0.869020    1.000000    
   421  O2    c    0.171482 *  0.282185 *  0.080350 *  0.869020    1.000000    
   422  O2    c    0.171482 *  0.460142 *  0.671598 *  0.869020    1.000000    
   423  O2    c    0.171482 *  0.782185 *  0.580350 *  0.869020    1.000000    
   424  O2    c    0.171482 *  0.960142 *  0.171598 *  0.869020    1.000000    
   425  O2    c    0.319073 *  0.032185 *  0.330350 *  0.869020    1.000000    
   426  O2    c    0.319073 *  0.210142 *  0.921598 *  0.869020    1.000000    
   427  O2    c    0.319073 *  0.532185 *  0.830350 *  0.869020    1.000000    
   428  O2    c    0.319073 *  0.710142 *  0.421598 *  0.869020    1.000000    
   429  O2    c    0.421482 *  0.032185 *  0.421598 *  0.869020    1.000000    
   430  O2    c    0.421482 *  0.210142 *  0.830350 *  0.869020    1.000000    
   431  O2    c    0.421482 *  0.532185 *  0.921598 *  0.869020    1.000000    
   432  O2    c    0.421482 *  0.710142 *  0.330350 *  0.869020    1.000000    
   433  O2    c    0.569073 *  0.282185 *  0.671598 *  0.869020    1.000000    
   434  O2    c    0.569073 *  0.460142 *  0.080350 *  0.869020    1.000000    
   435  O2    c    0.569073 *  0.782185 *  0.171598 *  0.869020    1.000000    
   436  O2    c    0.569073 *  0.960142 *  0.580350 *  0.869020    1.000000    
   437  O2    c    0.671482 *  0.282185 *  0.580350 *  0.869020    1.000000    
   438  O2    c    0.671482 *  0.460142 *  0.171598 *  0.869020    1.000000    
   439  O2    c    0.671482 *  0.782185 *  0.080350 *  0.869020    1.000000    
   440  O2    c    0.671482 *  0.960142 *  0.671598 *  0.869020    1.000000    
   441  O2    c    0.819073 *  0.032185 *  0.830350 *  0.869020    1.000000    
   442  O2    c    0.819073 *  0.210142 *  0.421598 *  0.869020    1.000000    
   443  O2    c    0.819073 *  0.532185 *  0.330350 *  0.869020    1.000000    
   444  O2    c    0.819073 *  0.710142 *  0.921598 *  0.869020    1.000000    
   445  O2    c    0.921482 *  0.032185 *  0.921598 *  0.869020    1.000000    
   446  O2    c    0.921482 *  0.210142 *  0.330350 *  0.869020    1.000000    
   447  O2    c    0.921482 *  0.532185 *  0.421598 *  0.869020    1.000000    
   448  O2    c    0.921482 *  0.710142 *  0.830350 *  0.869020    1.000000    
   449  O2    c    0.074309 *  0.069897 *  0.955974 *  0.869020    1.000000    
   450  O2    c    0.074309 *  0.172429 *  0.295974 *  0.869020    1.000000    
   451  O2    c    0.074309 *  0.569897 *  0.455974 *  0.869020    1.000000    
   452  O2    c    0.074309 *  0.672429 *  0.795974 *  0.869020    1.000000    
   453  O2    c    0.166246 *  0.069897 *  0.295974 *  0.869020    1.000000    
   454  O2    c    0.166246 *  0.172429 *  0.955974 *  0.869020    1.000000    
   455  O2    c    0.166246 *  0.569897 *  0.795974 *  0.869020    1.000000    
   456  O2    c    0.166246 *  0.672429 *  0.455974 *  0.869020    1.000000    
   457  O2    c    0.324309 *  0.319897 *  0.045974 *  0.869020    1.000000    
   458  O2    c    0.324309 *  0.422429 *  0.705974 *  0.869020    1.000000    
   459  O2    c    0.324309 *  0.819897 *  0.545974 *  0.869020    1.000000    
   460  O2    c    0.324309 *  0.922429 *  0.205974 *  0.869020    1.000000    
   461  O2    c    0.416246 *  0.319897 *  0.705974 *  0.869020    1.000000    
   462  O2    c    0.416246 *  0.422429 *  0.045974 *  0.869020    1.000000    
   463  O2    c    0.416246 *  0.819897 *  0.205974 *  0.869020    1.000000    
   464  O2    c    0.416246 *  0.922429 *  0.545974 *  0.869020    1.000000    
   465  O2    c    0.574309 *  0.069897 *  0.455974 *  0.869020    1.000000    
   466  O2    c    0.574309 *  0.172429 *  0.795974 *  0.869020    1.000000    
   467  O2    c    0.574309 *  0.569897 *  0.955974 *  0.869020    1.000000    
   468  O2    c    0.574309 *  0.672429 *  0.295974 *  0.869020    1.000000    
   469  O2    c    0.666246 *  0.069897 *  0.795974 *  0.869020    1.000000    
   470  O2    c    0.666246 *  0.172429 *  0.455974 *  0.869020    1.000000    
   471  O2    c    0.666246 *  0.569897 *  0.295974 *  0.869020    1.000000    
   472  O2    c    0.666246 *  0.672429 *  0.955974 *  0.869020    1.000000    
   473  O2    c    0.824309 *  0.319897 *  0.545974 *  0.869020    1.000000    
   474  O2    c    0.824309 *  0.422429 *  0.205974 *  0.869020    1.000000    
   475  O2    c    0.824309 *  0.819897 *  0.045974 *  0.869020    1.000000    
   476  O2    c    0.824309 *  0.922429 *  0.705974 *  0.869020    1.000000    
   477  O2    c    0.916246 *  0.319897 *  0.205974 *  0.869020    1.000000    
   478  O2    c    0.916246 *  0.422429 *  0.545974 *  0.869020    1.000000    
   479  O2    c    0.916246 *  0.819897 *  0.705974 *  0.869020    1.000000    
   480  O2    c    0.916246 *  0.922429 *  0.045974 *  0.869020    1.000000    
   481  O2    c    0.063799 *  0.317873 *  0.434520 *  0.869020    1.000000    
   482  O2    c    0.063799 *  0.424454 *  0.317429 *  0.869020    1.000000    
   483  O2    c    0.063799 *  0.817873 *  0.934520 *  0.869020    1.000000    
   484  O2    c    0.063799 *  0.924454 *  0.817429 *  0.869020    1.000000    
   485  O2    c    0.176756 *  0.317873 *  0.817429 *  0.869020    1.000000    
   486  O2    c    0.176756 *  0.424454 *  0.934520 *  0.869020    1.000000    
   487  O2    c    0.176756 *  0.817873 *  0.317429 *  0.869020    1.000000    
   488  O2    c    0.176756 *  0.924454 *  0.434520 *  0.869020    1.000000    
   489  O2    c    0.313799 *  0.067873 *  0.067429 *  0.869020    1.000000    
   490  O2    c    0.313799 *  0.174454 *  0.184520 *  0.869020    1.000000    
   491  O2    c    0.313799 *  0.567873 *  0.567429 *  0.869020    1.000000    
   492  O2    c    0.313799 *  0.674454 *  0.684520 *  0.869020    1.000000    
   493  O2    c    0.426756 *  0.067873 *  0.684520 *  0.869020    1.000000    
   494  O2    c    0.426756 *  0.174454 *  0.567429 *  0.869020    1.000000    
   495  O2    c    0.426756 *  0.567873 *  0.184520 *  0.869020    1.000000    
   496  O2    c    0.426756 *  0.674454 *  0.067429 *  0.869020    1.000000    
   497  O2    c    0.563799 *  0.317873 *  0.934520 *  0.869020    1.000000    
   498  O2    c    0.563799 *  0.424454 *  0.817429 *  0.869020    1.000000    
   499  O2    c    0.563799 *  0.817873 *  0.434520 *  0.869020    1.000000    
   500  O2    c    0.563799 *  0.924454 *  0.317429 *  0.869020    1.000000    
   501  O2    c    0.676756 *  0.317873 *  0.317429 *  0.869020    1.000000    
   502  O2    c    0.676756 *  0.424454 *  0.434520 *  0.869020    1.000000    
   503  O2    c    0.676756 *  0.817873 *  0.817429 *  0.869020    1.000000    
   504  O2    c    0.676756 *  0.924454 *  0.934520 *  0.869020    1.000000    
   505  O2    c    0.813799 *  0.067873 *  0.567429 *  0.869020    1.000000    
   506  O2    c    0.813799 *  0.174454 *  0.684520 *  0.869020    1.000000    
   507  O2    c    0.813799 *  0.567873 *  0.067429 *  0.869020    1.000000    
   508  O2    c    0.813799 *  0.674454 *  0.184520 *  0.869020    1.000000    
   509  O2    c    0.926756 *  0.067873 *  0.184520 *  0.869020    1.000000    
   510  O2    c    0.926756 *  0.174454 *  0.067429 *  0.869020    1.000000    
   511  O2    c    0.926756 *  0.567873 *  0.684520 *  0.869020    1.000000    
   512  O2    c    0.926756 *  0.674454 *  0.567429 *  0.869020    1.000000    
   513  O2    c    0.064299 *  0.315796 *  0.070330 *  0.869020    1.000000    
   514  O2    c    0.064299 *  0.426531 *  0.681618 *  0.869020    1.000000    
   515  O2    c    0.064299 *  0.815796 *  0.570330 *  0.869020    1.000000    
   516  O2    c    0.064299 *  0.926531 *  0.181618 *  0.869020    1.000000    
   517  O2    c    0.176256 *  0.315796 *  0.181618 *  0.869020    1.000000    
   518  O2    c    0.176256 *  0.426531 *  0.570330 *  0.869020    1.000000    
   519  O2    c    0.176256 *  0.815796 *  0.681618 *  0.869020    1.000000    
   520  O2    c    0.176256 *  0.926531 *  0.070330 *  0.869020    1.000000    
   521  O2    c    0.314299 *  0.065796 *  0.431618 *  0.869020    1.000000    
   522  O2    c    0.314299 *  0.176531 *  0.820330 *  0.869020    1.000000    
   523  O2    c    0.314299 *  0.565796 *  0.931618 *  0.869020    1.000000    
   524  O2    c    0.314299 *  0.676531 *  0.320330 *  0.869020    1.000000    
   525  O2    c    0.426256 *  0.065796 *  0.320330 *  0.869020    1.000000    
   526  O2    c    0.426256 *  0.176531 *  0.931618 *  0.869020    1.000000    
   527  O2    c    0.426256 *  0.565796 *  0.820330 *  0.869020    1.000000    
   528  O2    c    0.426256 *  0.676531 *  0.431618 *  0.869020    1.000000    
   529  O2    c    0.564299 *  0.315796 *  0.570330 *  0.869020    1.000000    
   530  O2    c    0.564299 *  0.426531 *  0.181618 *  0.869020    1.000000    
   531  O2    c    0.564299 *  0.815796 *  0.070330 *  0.869020    1.000000    
   532  O2    c    0.564299 *  0.926531 *  0.681618 *  0.869020    1.000000    
   533  O2    c    0.676256 *  0.315796 *  0.681618 *  0.869020    1.000000    
   534  O2    c    0.676256 *  0.426531 *  0.070330 *  0.869020    1.000000    
   535  O2    c    0.676256 *  0.815796 *  0.181618 *  0.869020    1.000000    
   536  O2    c    0.676256 *  0.926531 *  0.570330 *  0.869020    1.000000    
   537  O2    c    0.814299 *  0.065796 *  0.931618 *  0.869020    1.000000    
   538  O2    c    0.814299 *  0.176531 *  0.320330 *  0.869020    1.000000    
   539  O2    c    0.814299 *  0.565796 *  0.431618 *  0.869020    1.000000    
   540  O2    c    0.814299 *  0.676531 *  0.820330 *  0.869020    1.000000    
   541  O2    c    0.926256 *  0.065796 *  0.820330 *  0.869020    1.000000    
   542  O2    c    0.926256 *  0.176531 *  0.431618 *  0.869020    1.000000    
   543  O2    c    0.926256 *  0.565796 *  0.320330 *  0.869020    1.000000    
   544  O2    c    0.926256 *  0.676531 *  0.931618 *  0.869020    1.000000    
   545  O2    c    0.063371 *  0.060862 *  0.323467 *  0.869020    1.000000    
   546  O2    c    0.063371 *  0.181465 *  0.928481 *  0.869020    1.000000    
   547  O2    c    0.063371 *  0.560862 *  0.823467 *  0.869020    1.000000    
   548  O2    c    0.063371 *  0.681465 *  0.428481 *  0.869020    1.000000    
   549  O2    c    0.177185 *  0.060862 *  0.928481 *  0.869020    1.000000    
   550  O2    c    0.177185 *  0.181465 *  0.323467 *  0.869020    1.000000    
   551  O2    c    0.177185 *  0.560862 *  0.428481 *  0.869020    1.000000    
   552  O2    c    0.177185 *  0.681465 *  0.823467 *  0.869020    1.000000    
   553  O2    c    0.313371 *  0.310862 *  0.678481 *  0.869020    1.000000    
   554  O2    c    0.313371 *  0.431465 *  0.073467 *  0.869020    1.000000    
   555  O2    c    0.313371 *  0.810862 *  0.178481 *  0.869020    1.000000    
   556  O2    c    0.313371 *  0.931465 *  0.573467 *  0.869020    1.000000    
   557  O2    c    0.427185 *  0.310862 *  0.073467 *  0.869020    1.000000    
   558  O2    c    0.427185 *  0.431465 *  0.678481 *  0.869020    1.000000    
   559  O2    c    0.427185 *  0.810862 *  0.573467 *  0.869020    1.000000    
   560  O2    c    0.427185 *  0.931465 *  0.178481 *  0.869020    1.000000    
   561  O2    c    0.563371 *  0.060862 *  0.823467 *  0.869020    1.000000    
   562  O2    c    0.563371 *  0.181465 *  0.428481 *  0.869020    1.000000    
   563  O2    c    0.563371 *  0.560862 *  0.323467 *  0.869020    1.000000    
   564  O2    c    0.563371 *  0.681465 *  0.928481 *  0.869020    1.000000    
   565  O2    c    0.677185 *  0.060862 *  0.428481 *  0.869020    1.000000    
   566  O2    c    0.677185 *  0.181465 *  0.823467 *  0.869020    1.000000    
   567  O2    c    0.677185 *  0.560862 *  0.928481 *  0.869020    1.000000    
   568  O2    c    0.677185 *  0.681465 *  0.323467 *  0.869020    1.000000    
   569  O2    c    0.813371 *  0.310862 *  0.178481 *  0.869020    1.000000    
   570  O2    c    0.813371 *  0.431465 *  0.573467 *  0.869020    1.000000    
   571  O2    c    0.813371 *  0.810862 *  0.678481 *  0.869020    1.000000    
   572  O2    c    0.813371 *  0.931465 *  0.073467 *  0.869020    1.000000    
   573  O2    c    0.927185 *  0.310862 *  0.573467 *  0.869020    1.000000    
   574  O2    c    0.927185 *  0.431465 *  0.178481 *  0.869020    1.000000    
   575  O2    c    0.927185 *  0.810862 *  0.073467 *  0.869020    1.000000    
   576  O2    c    0.927185 *  0.931465 *  0.678481 *  0.869020    1.000000    
   577  K     c    0.063300 *  0.062800 *  0.065160 *  1.000000    1.000000    
   578  K     c    0.996760 *  0.246700 *  0.255940 *  1.000000    1.000000    
   579  K     c    0.990900 *  0.494580 *  0.494800 *  1.000000    1.000000    
   580  K     c    0.063690 *  0.679010 *  0.687050 *  1.000000    1.000000    
   581  K     c    0.250500 *  0.991380 *  0.260310 *  1.000000    1.000000    
   582  K     c    0.176950 *  0.178130 *  0.064610 *  1.000000    1.000000    
   583  K     c    0.241570 *  0.495720 *  0.747410 *  1.000000    1.000000    
   584  K     c    0.184680 *  0.684120 *  0.565420 *  1.000000    1.000000    
   585  K     c    0.249900 *  0.262140 *  0.992830 *  1.000000    1.000000    
   586  K     c    0.313130 *  0.427990 *  0.814360 *  1.000000    1.000000    
   587  K     c    0.259500 *  0.750780 *  0.494990 *  1.000000    1.000000    
   588  K     c    0.319970 *  0.922290 *  0.315770 *  1.000000    1.000000    
   589  K     c    0.493600 *  0.248720 *  0.755390 *  1.000000    1.000000    
   590  K     c    0.427140 *  0.428060 *  0.936610 *  1.000000    1.000000    
   591  K     c    0.485700 *  0.754880 *  0.258440 *  1.000000    1.000000    
   592  K     c    0.426250 *  0.923990 *  0.432590 *  1.000000    1.000000    
   593  K     c    0.491510 *  0.001270 *  0.508320 *  1.000000    1.000000    
   594  K     c    0.563210 *  0.178050 *  0.686990 *  1.000000    1.000000    
   595  K     c    0.498740 *  0.497140 *  0.001270 *  1.000000    1.000000    
   596  K     c    0.566960 *  0.673590 *  0.182440 *  1.000000    1.000000    
   597  K     c    0.745840 *  0.995600 *  0.753130 *  1.000000    1.000000    
   598  K     c    0.678050 *  0.178270 *  0.564970 *  1.000000    1.000000    
   599  K     c    0.672290 *  0.566340 *  0.182500 *  1.000000    1.000000    
   600  K     c    0.742190 *  0.742080 *  0.001870 *  1.000000    1.000000    
   601  K     c    0.748870 *  0.252970 *  0.498880 *  1.000000    1.000000    
   602  K     c    0.754870 *  0.486460 *  0.258440 *  1.000000    1.000000    
   603  K     c    0.819130 *  0.810780 *  0.936020 *  1.000000    1.000000    
   604  K     c    0.815210 *  0.924230 *  0.819270 *  1.000000    1.000000    
   605  K     c    0.921270 *  0.319670 *  0.315790 *  1.000000    1.000000    
   606  K     c    0.922890 *  0.427200 *  0.432390 *  1.000000    1.000000    
   607  K     c    0.005530 *  0.750830 *  0.751950 *  1.000000    1.000000    
   608  K     c    0.997150 *  0.999770 *  0.002690 *  1.000000    1.000000    
   609  K     c    0.991470 *  0.991320 *  0.256150 *  1.000000    1.000000    
   610  K     c    0.990970 *  0.250120 *  0.996560 *  1.000000    1.000000    
   611  K     c    0.991420 *  0.490880 *  0.754960 *  1.000000    1.000000    
   612  K     c    0.991720 *  0.751370 *  0.496830 *  1.000000    1.000000    
   613  K     c    0.249370 *  0.990930 *  0.996570 *  1.000000    1.000000    
   614  K     c    0.249810 *  0.250630 *  0.255300 *  1.000000    1.000000    
   615  K     c    0.249380 *  0.490830 *  0.496570 *  1.000000    1.000000    
   616  K     c    0.249670 *  0.750810 *  0.755410 *  1.000000    1.000000    
   617  K     c    0.240760 *  0.240640 *  0.746170 *  1.000000    1.000000    
   618  K     c    0.240570 *  0.500340 *  0.005150 *  1.000000    1.000000    
   619  K     c    0.241180 *  0.742100 *  0.247340 *  1.000000    1.000000    
   620  K     c    0.241500 *  0.000380 *  0.505220 *  1.000000    1.000000    
   621  K     c    0.499390 *  0.240490 *  0.005380 *  1.000000    1.000000    
   622  K     c    0.499800 *  0.500250 *  0.746100 *  1.000000    1.000000    
   623  K     c    0.499460 *  0.741830 *  0.505620 *  1.000000    1.000000    
   624  K     c    0.499080 *  0.000640 *  0.246980 *  1.000000    1.000000    
   625  K     c    0.491020 *  0.991220 *  0.755050 *  1.000000    1.000000    
   626  K     c    0.490920 *  0.250100 *  0.496750 *  1.000000    1.000000    
   627  K     c    0.490550 *  0.490710 *  0.255860 *  1.000000    1.000000    
   628  K     c    0.490860 *  0.751110 *  0.995610 *  1.000000    1.000000    
   629  K     c    0.750640 *  0.991640 *  0.496820 *  1.000000    1.000000    
   630  K     c    0.750120 *  0.250320 *  0.755530 *  1.000000    1.000000    
   631  K     c    0.750440 *  0.490570 *  0.995790 *  1.000000    1.000000    
   632  K     c    0.750180 *  0.750820 *  0.256100 *  1.000000    1.000000    
   633  K     c    0.742250 *  0.240930 *  0.247280 *  1.000000    1.000000    
   634  K     c    0.741740 *  0.500000 *  0.505730 *  1.000000    1.000000    
   635  K     c    0.742090 *  0.742080 *  0.746060 *  1.000000    1.000000    
   636  K     c    0.742050 *  0.000580 *  0.005080 *  1.000000    1.000000    
   637  K     c    0.999650 *  0.241450 *  0.505250 *  1.000000    1.000000    
   638  K     c    0.999680 *  0.499900 *  0.247100 *  1.000000    1.000000    
   639  K     c    0.999850 *  0.741680 *  0.004940 *  1.000000    1.000000    
   640  K     c    0.999840 *  0.000460 *  0.747150 *  1.000000    1.000000    
   641  K     c    0.082690 *  0.369890 *  0.875380 *  1.000000    1.000000    
   642  K     c    0.083580 *  0.872370 *  0.376600 *  1.000000    1.000000    
   643  K     c    0.157600 *  0.369690 *  0.376140 *  1.000000    1.000000    
   644  K     c    0.157520 *  0.872060 *  0.876270 *  1.000000    1.000000    
   645  K     c    0.332740 *  0.119420 *  0.624800 *  1.000000    1.000000    
   646  K     c    0.331310 *  0.622380 *  0.125900 *  1.000000    1.000000    
   647  K     c    0.407410 *  0.119180 *  0.126240 *  1.000000    1.000000    
   648  K     c    0.407850 *  0.621410 *  0.624910 *  1.000000    1.000000    
   649  K     c    0.583040 *  0.366720 *  0.377910 *  1.000000    1.000000    
   650  K     c    0.583220 *  0.873790 *  0.872430 *  1.000000    1.000000    
   651  K     c    0.658030 *  0.367330 *  0.873200 *  1.000000    1.000000    
   652  K     c    0.658040 *  0.874660 *  0.378690 *  1.000000    1.000000    
   653  K     c    0.833480 *  0.120640 *  0.126700 *  1.000000    1.000000    
   654  K     c    0.833370 *  0.621560 *  0.625900 *  1.000000    1.000000    
   655  K     c    0.908420 *  0.120970 *  0.626330 *  1.000000    1.000000    
   656  K     c    0.909950 *  0.620850 *  0.125650 *  1.000000    1.000000    
   657  K     c    0.119400 *  0.331790 *  0.624300 *  1.000000    1.000000    
   658  K     c    0.119320 *  0.409200 *  0.126500 *  1.000000    1.000000    
   659  K     c    0.120300 *  0.832340 *  0.126860 *  1.000000    1.000000    
   660  K     c    0.120690 *  0.909950 *  0.626380 *  1.000000    1.000000    
   661  K     c    0.369510 *  0.081710 *  0.875510 *  1.000000    1.000000    
   662  K     c    0.369420 *  0.159330 *  0.376340 *  1.000000    1.000000    
   663  K     c    0.367680 *  0.582110 *  0.379240 *  1.000000    1.000000    
   664  K     c    0.367950 *  0.659590 *  0.872160 *  1.000000    1.000000    
   665  K     c    0.620930 *  0.330380 *  0.126390 *  1.000000    1.000000    
   666  K     c    0.620860 *  0.409220 *  0.624220 *  1.000000    1.000000    
   667  K     c    0.621190 *  0.832570 *  0.625910 *  1.000000    1.000000    
   668  K     c    0.620880 *  0.911540 *  0.125270 *  1.000000    1.000000    
   669  K     c    0.872090 *  0.082520 *  0.376640 *  1.000000    1.000000    
   670  K     c    0.871750 *  0.159110 *  0.876200 *  1.000000    1.000000    
   671  K     c    0.872490 *  0.582120 *  0.871040 *  1.000000    1.000000    
   672  K     c    0.873010 *  0.659640 *  0.380120 *  1.000000    1.000000    
   673  O2    s    0.106081 *  0.249085 *  0.355130 * -2.869020    1.000000    
   674  O2    s    0.106081 *  0.493241 *  0.396818 * -2.869020    1.000000    
   675  O2    s    0.106081 *  0.749085 *  0.855130 * -2.869020    1.000000    
   676  O2    s    0.106081 *  0.993241 *  0.896818 * -2.869020    1.000000    
   677  O2    s    0.134474 *  0.249085 *  0.896818 * -2.869020    1.000000    
   678  O2    s    0.134474 *  0.493241 *  0.855130 * -2.869020    1.000000    
   679  O2    s    0.134474 *  0.749085 *  0.396818 * -2.869020    1.000000    
   680  O2    s    0.134474 *  0.993241 *  0.355130 * -2.869020    1.000000    
   681  O2    s    0.356081 *  0.999086 *  0.146818 * -2.869020    1.000000    
   682  O2    s    0.356081 *  0.243241 *  0.105130 * -2.869020    1.000000    
   683  O2    s    0.356081 *  0.499085 *  0.646818 * -2.869020    1.000000    
   684  O2    s    0.356081 *  0.743241 *  0.605130 * -2.869020    1.000000    
   685  O2    s    0.384474 *  0.999086 *  0.605130 * -2.869020    1.000000    
   686  O2    s    0.384474 *  0.243241 *  0.646818 * -2.869020    1.000000    
   687  O2    s    0.384474 *  0.499085 *  0.105130 * -2.869020    1.000000    
   688  O2    s    0.384474 *  0.743241 *  0.146818 * -2.869020    1.000000    
   689  O2    s    0.606081 *  0.249085 *  0.855130 * -2.869020    1.000000    
   690  O2    s    0.606081 *  0.493241 *  0.896818 * -2.869020    1.000000    
   691  O2    s    0.606081 *  0.749085 *  0.355130 * -2.869020    1.000000    
   692  O2    s    0.606081 *  0.993241 *  0.396818 * -2.869020    1.000000    
   693  O2    s    0.634474 *  0.249085 *  0.396818 * -2.869020    1.000000    
   694  O2    s    0.634474 *  0.493241 *  0.355130 * -2.869020    1.000000    
   695  O2    s    0.634474 *  0.749085 *  0.896818 * -2.869020    1.000000    
   696  O2    s    0.634474 *  0.993241 *  0.855130 * -2.869020    1.000000    
   697  O2    s    0.856081 *  0.999086 *  0.646818 * -2.869020    1.000000    
   698  O2    s    0.856081 *  0.243241 *  0.605130 * -2.869020    1.000000    
   699  O2    s    0.856081 *  0.499085 *  0.146818 * -2.869020    1.000000    
   700  O2    s    0.856081 *  0.743241 *  0.105130 * -2.869020    1.000000    
   701  O2    s    0.884474 *  0.999086 *  0.105130 * -2.869020    1.000000    
   702  O2    s    0.884474 *  0.243241 *  0.146818 * -2.869020    1.000000    
   703  O2    s    0.884474 *  0.499085 *  0.605130 * -2.869020    1.000000    
   704  O2    s    0.884474 *  0.743241 *  0.646818 * -2.869020    1.000000    
   705  O2    s    0.095837 *  0.353862 *  0.252098 * -2.869020    1.000000    
   706  O2    s    0.095837 *  0.388465 *  0.499850 * -2.869020    1.000000    
   707  O2    s    0.095837 *  0.853862 *  0.752098 * -2.869020    1.000000    
   708  O2    s    0.095837 *  0.888465 *  0.999851 * -2.869020    1.000000    
   709  O2    s    0.144718 *  0.353862 *  0.999851 * -2.869020    1.000000    
   710  O2    s    0.144718 *  0.388465 *  0.752098 * -2.869020    1.000000    
   711  O2    s    0.144718 *  0.853862 *  0.499850 * -2.869020    1.000000    
   712  O2    s    0.144718 *  0.888465 *  0.252098 * -2.869020    1.000000    
   713  O2    s    0.345837 *  0.103862 *  0.249850 * -2.869020    1.000000    
   714  O2    s    0.345837 *  0.138465 *  0.002098 * -2.869020    1.000000    
   715  O2    s    0.345837 *  0.603862 *  0.749850 * -2.869020    1.000000    
   716  O2    s    0.345837 *  0.638465 *  0.502098 * -2.869020    1.000000    
   717  O2    s    0.394718 *  0.103862 *  0.502098 * -2.869020    1.000000    
   718  O2    s    0.394718 *  0.138465 *  0.749850 * -2.869020    1.000000    
   719  O2    s    0.394718 *  0.603862 *  0.002098 * -2.869020    1.000000    
   720  O2    s    0.394718 *  0.638465 *  0.249850 * -2.869020    1.000000    
   721  O2    s    0.595837 *  0.353862 *  0.752098 * -2.869020    1.000000    
   722  O2    s    0.595837 *  0.388465 *  0.999851 * -2.869020    1.000000    
   723  O2    s    0.595837 *  0.853862 *  0.252098 * -2.869020    1.000000    
   724  O2    s    0.595837 *  0.888465 *  0.499850 * -2.869020    1.000000    
   725  O2    s    0.644718 *  0.353862 *  0.499850 * -2.869020    1.000000    
   726  O2    s    0.644718 *  0.388465 *  0.252098 * -2.869020    1.000000    
   727  O2    s    0.644718 *  0.853862 *  0.999851 * -2.869020    1.000000    
   728  O2    s    0.644718 *  0.888465 *  0.752098 * -2.869020    1.000000    
   729  O2    s    0.845837 *  0.103862 *  0.749850 * -2.869020    1.000000    
   730  O2    s    0.845837 *  0.138465 *  0.502098 * -2.869020    1.000000    
   731  O2    s    0.845837 *  0.603862 *  0.249850 * -2.869020    1.000000    
   732  O2    s    0.845837 *  0.638465 *  0.002098 * -2.869020    1.000000    
   733  O2    s    0.894718 *  0.103862 *  0.002098 * -2.869020    1.000000    
   734  O2    s    0.894718 *  0.138465 *  0.249850 * -2.869020    1.000000    
   735  O2    s    0.894718 *  0.603862 *  0.502098 * -2.869020    1.000000    
   736  O2    s    0.894718 *  0.638465 *  0.749850 * -2.869020    1.000000    
   737  O2    s    0.001573 *  0.350737 *  0.141277 * -2.869020    1.000000    
   738  O2    s    0.001573 *  0.391589 *  0.610671 * -2.869020    1.000000    
   739  O2    s    0.001573 *  0.850737 *  0.641277 * -2.869020    1.000000    
   740  O2    s    0.001573 *  0.891589 *  0.110671 * -2.869020    1.000000    
   741  O2    s    0.238982 *  0.350737 *  0.110671 * -2.869020    1.000000    
   742  O2    s    0.238982 *  0.391589 *  0.641277 * -2.869020    1.000000    
   743  O2    s    0.238982 *  0.850737 *  0.610671 * -2.869020    1.000000    
   744  O2    s    0.238982 *  0.891589 *  0.141277 * -2.869020    1.000000    
   745  O2    s    0.251573 *  0.100737 *  0.360671 * -2.869020    1.000000    
   746  O2    s    0.251573 *  0.141589 *  0.891277 * -2.869020    1.000000    
   747  O2    s    0.251573 *  0.600737 *  0.860671 * -2.869020    1.000000    
   748  O2    s    0.251573 *  0.641589 *  0.391277 * -2.869020    1.000000    
   749  O2    s    0.488982 *  0.100737 *  0.391277 * -2.869020    1.000000    
   750  O2    s    0.488982 *  0.141589 *  0.860671 * -2.869020    1.000000    
   751  O2    s    0.488982 *  0.600737 *  0.891277 * -2.869020    1.000000    
   752  O2    s    0.488982 *  0.641589 *  0.360671 * -2.869020    1.000000    
   753  O2    s    0.501573 *  0.350737 *  0.641277 * -2.869020    1.000000    
   754  O2    s    0.501573 *  0.391589 *  0.110671 * -2.869020    1.000000    
   755  O2    s    0.501573 *  0.850737 *  0.141277 * -2.869020    1.000000    
   756  O2    s    0.501573 *  0.891589 *  0.610671 * -2.869020    1.000000    
   757  O2    s    0.738982 *  0.350737 *  0.610671 * -2.869020    1.000000    
   758  O2    s    0.738982 *  0.391589 *  0.141277 * -2.869020    1.000000    
   759  O2    s    0.738982 *  0.850737 *  0.110671 * -2.869020    1.000000    
   760  O2    s    0.738982 *  0.891589 *  0.641277 * -2.869020    1.000000    
   761  O2    s    0.751573 *  0.100737 *  0.860671 * -2.869020    1.000000    
   762  O2    s    0.751573 *  0.141589 *  0.391277 * -2.869020    1.000000    
   763  O2    s    0.751573 *  0.600737 *  0.360671 * -2.869020    1.000000    
   764  O2    s    0.751573 *  0.641589 *  0.891277 * -2.869020    1.000000    
   765  O2    s    0.988982 *  0.100737 *  0.891277 * -2.869020    1.000000    
   766  O2    s    0.988982 *  0.141589 *  0.360671 * -2.869020    1.000000    
   767  O2    s    0.988982 *  0.600737 *  0.391277 * -2.869020    1.000000    
   768  O2    s    0.988982 *  0.641589 *  0.860671 * -2.869020    1.000000    
   769  O2    s    0.998184 *  0.005148 *  0.862754 * -2.869020    1.000000    
   770  O2    s    0.998184 *  0.237178 *  0.389194 * -2.869020    1.000000    
   771  O2    s    0.998184 *  0.505148 *  0.362754 * -2.869020    1.000000    
   772  O2    s    0.998184 *  0.737178 *  0.889194 * -2.869020    1.000000    
   773  O2    s    0.242372 *  0.005148 *  0.389194 * -2.869020    1.000000    
   774  O2    s    0.242372 *  0.237178 *  0.862754 * -2.869020    1.000000    
   775  O2    s    0.242372 *  0.505148 *  0.889194 * -2.869020    1.000000    
   776  O2    s    0.242372 *  0.737178 *  0.362754 * -2.869020    1.000000    
   777  O2    s    0.248184 *  0.255148 *  0.139194 * -2.869020    1.000000    
   778  O2    s    0.248184 *  0.487178 *  0.612754 * -2.869020    1.000000    
   779  O2    s    0.248184 *  0.755148 *  0.639194 * -2.869020    1.000000    
   780  O2    s    0.248184 *  0.987178 *  0.112754 * -2.869020    1.000000    
   781  O2    s    0.492372 *  0.255148 *  0.612754 * -2.869020    1.000000    
   782  O2    s    0.492372 *  0.487178 *  0.139194 * -2.869020    1.000000    
   783  O2    s    0.492372 *  0.755148 *  0.112754 * -2.869020    1.000000    
   784  O2    s    0.492372 *  0.987178 *  0.639194 * -2.869020    1.000000    
   785  O2    s    0.498184 *  0.005148 *  0.362754 * -2.869020    1.000000    
   786  O2    s    0.498184 *  0.237178 *  0.889194 * -2.869020    1.000000    
   787  O2    s    0.498184 *  0.505148 *  0.862754 * -2.869020    1.000000    
   788  O2    s    0.498184 *  0.737178 *  0.389194 * -2.869020    1.000000    
   789  O2    s    0.742372 *  0.005148 *  0.889194 * -2.869020    1.000000    
   790  O2    s    0.742372 *  0.237178 *  0.362754 * -2.869020    1.000000    
   791  O2    s    0.742372 *  0.505148 *  0.389194 * -2.869020    1.000000    
   792  O2    s    0.742372 *  0.737178 *  0.862754 * -2.869020    1.000000    
   793  O2    s    0.748184 *  0.255148 *  0.639194 * -2.869020    1.000000    
   794  O2    s    0.748184 *  0.487178 *  0.112754 * -2.869020    1.000000    
   795  O2    s    0.748184 *  0.755148 *  0.139194 * -2.869020    1.000000    
   796  O2    s    0.748184 *  0.987178 *  0.612754 * -2.869020    1.000000    
   797  O2    s    0.992372 *  0.255148 *  0.112754 * -2.869020    1.000000    
   798  O2    s    0.992372 *  0.487178 *  0.639194 * -2.869020    1.000000    
   799  O2    s    0.992372 *  0.755148 *  0.612754 * -2.869020    1.000000    
   800  O2    s    0.992372 *  0.987178 *  0.139194 * -2.869020    1.000000    
   801  O2    s    0.109241 *  0.995480 *  0.259436 * -2.869020    1.000000    
   802  O2    s    0.109241 *  0.246847 *  0.992512 * -2.869020    1.000000    
   803  O2    s    0.109241 *  0.495479 *  0.759436 * -2.869020    1.000000    
   804  O2    s    0.109241 *  0.746847 *  0.492512 * -2.869020    1.000000    
   805  O2    s    0.131315 *  0.995480 *  0.992512 * -2.869020    1.000000    
   806  O2    s    0.131315 *  0.246847 *  0.259436 * -2.869020    1.000000    
   807  O2    s    0.131315 *  0.495479 *  0.492512 * -2.869020    1.000000    
   808  O2    s    0.131315 *  0.746847 *  0.759436 * -2.869020    1.000000    
   809  O2    s    0.359241 *  0.245479 *  0.742512 * -2.869020    1.000000    
   810  O2    s    0.359241 *  0.496847 *  0.009436 * -2.869020    1.000000    
   811  O2    s    0.359241 *  0.745479 *  0.242512 * -2.869020    1.000000    
   812  O2    s    0.359241 *  0.996848 *  0.509436 * -2.869020    1.000000    
   813  O2    s    0.381315 *  0.245479 *  0.009436 * -2.869020    1.000000    
   814  O2    s    0.381315 *  0.496847 *  0.742512 * -2.869020    1.000000    
   815  O2    s    0.381315 *  0.745479 *  0.509436 * -2.869020    1.000000    
   816  O2    s    0.381315 *  0.996848 *  0.242512 * -2.869020    1.000000    
   817  O2    s    0.609241 *  0.995480 *  0.759436 * -2.869020    1.000000    
   818  O2    s    0.609241 *  0.246847 *  0.492512 * -2.869020    1.000000    
   819  O2    s    0.609241 *  0.495479 *  0.259436 * -2.869020    1.000000    
   820  O2    s    0.609241 *  0.746847 *  0.992512 * -2.869020    1.000000    
   821  O2    s    0.631315 *  0.995480 *  0.492512 * -2.869020    1.000000    
   822  O2    s    0.631315 *  0.246847 *  0.759436 * -2.869020    1.000000    
   823  O2    s    0.631315 *  0.495479 *  0.992512 * -2.869020    1.000000    
   824  O2    s    0.631315 *  0.746847 *  0.259436 * -2.869020    1.000000    
   825  O2    s    0.859241 *  0.245479 *  0.242512 * -2.869020    1.000000    
   826  O2    s    0.859241 *  0.496847 *  0.509436 * -2.869020    1.000000    
   827  O2    s    0.859241 *  0.745479 *  0.742512 * -2.869020    1.000000    
   828  O2    s    0.859241 *  0.996848 *  0.009436 * -2.869020    1.000000    
   829  O2    s    0.881315 *  0.245479 *  0.509436 * -2.869020    1.000000    
   830  O2    s    0.881315 *  0.496847 *  0.242512 * -2.869020    1.000000    
   831  O2    s    0.881315 *  0.745479 *  0.009436 * -2.869020    1.000000    
   832  O2    s    0.881315 *  0.996848 *  0.742512 * -2.869020    1.000000    
   833  O2    s    0.990078 *  0.110384 *  0.253877 * -2.869020    1.000000    
   834  O2    s    0.990078 *  0.131943 *  0.998072 * -2.869020    1.000000    
   835  O2    s    0.990078 *  0.610384 *  0.753877 * -2.869020    1.000000    
   836  O2    s    0.990078 *  0.631943 *  0.498071 * -2.869020    1.000000    
   837  O2    s    0.250478 *  0.110384 *  0.998072 * -2.869020    1.000000    
   838  O2    s    0.250478 *  0.131943 *  0.253877 * -2.869020    1.000000    
   839  O2    s    0.250478 *  0.610384 *  0.498071 * -2.869020    1.000000    
   840  O2    s    0.250478 *  0.631943 *  0.753877 * -2.869020    1.000000    
   841  O2    s    0.240077 *  0.360384 *  0.748071 * -2.869020    1.000000    
   842  O2    s    0.240077 *  0.381943 *  0.003877 * -2.869020    1.000000    
   843  O2    s    0.240077 *  0.860384 *  0.248071 * -2.869020    1.000000    
   844  O2    s    0.240077 *  0.881943 *  0.503877 * -2.869020    1.000000    
   845  O2    s    0.500478 *  0.360384 *  0.003877 * -2.869020    1.000000    
   846  O2    s    0.500478 *  0.381943 *  0.748071 * -2.869020    1.000000    
   847  O2    s    0.500478 *  0.860384 *  0.503877 * -2.869020    1.000000    
   848  O2    s    0.500478 *  0.881943 *  0.248071 * -2.869020    1.000000    
   849  O2    s    0.490077 *  0.110384 *  0.753877 * -2.869020    1.000000    
   850  O2    s    0.490077 *  0.131943 *  0.498071 * -2.869020    1.000000    
   851  O2    s    0.490077 *  0.610384 *  0.253877 * -2.869020    1.000000    
   852  O2    s    0.490077 *  0.631943 *  0.998072 * -2.869020    1.000000    
   853  O2    s    0.750478 *  0.110384 *  0.498071 * -2.869020    1.000000    
   854  O2    s    0.750478 *  0.131943 *  0.753877 * -2.869020    1.000000    
   855  O2    s    0.750478 *  0.610384 *  0.998072 * -2.869020    1.000000    
   856  O2    s    0.750478 *  0.631943 *  0.253877 * -2.869020    1.000000    
   857  O2    s    0.740077 *  0.360384 *  0.248071 * -2.869020    1.000000    
   858  O2    s    0.740077 *  0.381943 *  0.503877 * -2.869020    1.000000    
   859  O2    s    0.740077 *  0.860384 *  0.748071 * -2.869020    1.000000    
   860  O2    s    0.740077 *  0.881943 *  0.003877 * -2.869020    1.000000    
   861  O2    s    0.000478 *  0.360384 *  0.503877 * -2.869020    1.000000    
   862  O2    s    0.000478 *  0.381943 *  0.248071 * -2.869020    1.000000    
   863  O2    s    0.000478 *  0.860384 *  0.003877 * -2.869020    1.000000    
   864  O2    s    0.000478 *  0.881943 *  0.748071 * -2.869020    1.000000    
   865  O2    s    0.034051 *  0.326031 *  0.324001 * -2.869020    1.000000    
   866  O2    s    0.034051 *  0.416296 *  0.427947 * -2.869020    1.000000    
   867  O2    s    0.034051 *  0.826031 *  0.824001 * -2.869020    1.000000    
   868  O2    s    0.034051 *  0.916296 *  0.927947 * -2.869020    1.000000    
   869  O2    s    0.206504 *  0.326031 *  0.927947 * -2.869020    1.000000    
   870  O2    s    0.206504 *  0.416296 *  0.824001 * -2.869020    1.000000    
   871  O2    s    0.206504 *  0.826031 *  0.427947 * -2.869020    1.000000    
   872  O2    s    0.206504 *  0.916296 *  0.324001 * -2.869020    1.000000    
   873  O2    s    0.284051 *  0.076031 *  0.177947 * -2.869020    1.000000    
   874  O2    s    0.284051 *  0.166296 *  0.074001 * -2.869020    1.000000    
   875  O2    s    0.284051 *  0.576031 *  0.677947 * -2.869020    1.000000    
   876  O2    s    0.284051 *  0.666296 *  0.574001 * -2.869020    1.000000    
   877  O2    s    0.456504 *  0.076031 *  0.574001 * -2.869020    1.000000    
   878  O2    s    0.456504 *  0.166296 *  0.677947 * -2.869020    1.000000    
   879  O2    s    0.456504 *  0.576031 *  0.074001 * -2.869020    1.000000    
   880  O2    s    0.456504 *  0.666296 *  0.177947 * -2.869020    1.000000    
   881  O2    s    0.534051 *  0.326031 *  0.824001 * -2.869020    1.000000    
   882  O2    s    0.534051 *  0.416296 *  0.927947 * -2.869020    1.000000    
   883  O2    s    0.534051 *  0.826031 *  0.324001 * -2.869020    1.000000    
   884  O2    s    0.534051 *  0.916296 *  0.427947 * -2.869020    1.000000    
   885  O2    s    0.706504 *  0.326031 *  0.427947 * -2.869020    1.000000    
   886  O2    s    0.706504 *  0.416296 *  0.324001 * -2.869020    1.000000    
   887  O2    s    0.706504 *  0.826031 *  0.927947 * -2.869020    1.000000    
   888  O2    s    0.706504 *  0.916296 *  0.824001 * -2.869020    1.000000    
   889  O2    s    0.784051 *  0.076031 *  0.677947 * -2.869020    1.000000    
   890  O2    s    0.784051 *  0.166296 *  0.574001 * -2.869020    1.000000    
   891  O2    s    0.784051 *  0.576031 *  0.177947 * -2.869020    1.000000    
   892  O2    s    0.784051 *  0.666296 *  0.074001 * -2.869020    1.000000    
   893  O2    s    0.956504 *  0.076031 *  0.074001 * -2.869020    1.000000    
   894  O2    s    0.956504 *  0.166296 *  0.177947 * -2.869020    1.000000    
   895  O2    s    0.956504 *  0.576031 *  0.574001 * -2.869020    1.000000    
   896  O2    s    0.956504 *  0.666296 *  0.677947 * -2.869020    1.000000    
   897  O2    s    0.068216 *  0.284885 *  0.169790 * -2.869020    1.000000    
   898  O2    s    0.068216 *  0.457441 *  0.582158 * -2.869020    1.000000    
   899  O2    s    0.068216 *  0.784885 *  0.669790 * -2.869020    1.000000    
   900  O2    s    0.068216 *  0.957441 *  0.082158 * -2.869020    1.000000    
   901  O2    s    0.172340 *  0.284885 *  0.082158 * -2.869020    1.000000    
   902  O2    s    0.172340 *  0.457441 *  0.669790 * -2.869020    1.000000    
   903  O2    s    0.172340 *  0.784885 *  0.582158 * -2.869020    1.000000    
   904  O2    s    0.172340 *  0.957441 *  0.169790 * -2.869020    1.000000    
   905  O2    s    0.318216 *  0.034885 *  0.332158 * -2.869020    1.000000    
   906  O2    s    0.318216 *  0.207441 *  0.919790 * -2.869020    1.000000    
   907  O2    s    0.318216 *  0.534885 *  0.832158 * -2.869020    1.000000    
   908  O2    s    0.318216 *  0.707441 *  0.419790 * -2.869020    1.000000    
   909  O2    s    0.422340 *  0.034885 *  0.419790 * -2.869020    1.000000    
   910  O2    s    0.422340 *  0.207441 *  0.832158 * -2.869020    1.000000    
   911  O2    s    0.422340 *  0.534885 *  0.919790 * -2.869020    1.000000    
   912  O2    s    0.422340 *  0.707441 *  0.332158 * -2.869020    1.000000    
   913  O2    s    0.568216 *  0.284885 *  0.669790 * -2.869020    1.000000    
   914  O2    s    0.568216 *  0.457441 *  0.082158 * -2.869020    1.000000    
   915  O2    s    0.568216 *  0.784885 *  0.169790 * -2.869020    1.000000    
   916  O2    s    0.568216 *  0.957441 *  0.582158 * -2.869020    1.000000    
   917  O2    s    0.672340 *  0.284885 *  0.582158 * -2.869020    1.000000    
   918  O2    s    0.672340 *  0.457441 *  0.169790 * -2.869020    1.000000    
   919  O2    s    0.672340 *  0.784885 *  0.082158 * -2.869020    1.000000    
   920  O2    s    0.672340 *  0.957441 *  0.669790 * -2.869020    1.000000    
   921  O2    s    0.818216 *  0.034885 *  0.832158 * -2.869020    1.000000    
   922  O2    s    0.818216 *  0.207441 *  0.419790 * -2.869020    1.000000    
   923  O2    s    0.818216 *  0.534885 *  0.332158 * -2.869020    1.000000    
   924  O2    s    0.818216 *  0.707441 *  0.919790 * -2.869020    1.000000    
   925  O2    s    0.922340 *  0.034885 *  0.919790 * -2.869020    1.000000    
   926  O2    s    0.922340 *  0.207441 *  0.332158 * -2.869020    1.000000    
   927  O2    s    0.922340 *  0.534885 *  0.419790 * -2.869020    1.000000    
   928  O2    s    0.922340 *  0.707441 *  0.832158 * -2.869020    1.000000    
   929  O2    s    0.076336 *  0.069041 *  0.953892 * -2.869020    1.000000    
   930  O2    s    0.076336 *  0.173286 *  0.298056 * -2.869020    1.000000    
   931  O2    s    0.076336 *  0.569041 *  0.453892 * -2.869020    1.000000    
   932  O2    s    0.076336 *  0.673286 *  0.798056 * -2.869020    1.000000    
   933  O2    s    0.164219 *  0.069041 *  0.298056 * -2.869020    1.000000    
   934  O2    s    0.164219 *  0.173286 *  0.953892 * -2.869020    1.000000    
   935  O2    s    0.164219 *  0.569041 *  0.798056 * -2.869020    1.000000    
   936  O2    s    0.164219 *  0.673286 *  0.453892 * -2.869020    1.000000    
   937  O2    s    0.326336 *  0.319041 *  0.048056 * -2.869020    1.000000    
   938  O2    s    0.326336 *  0.423286 *  0.703892 * -2.869020    1.000000    
   939  O2    s    0.326336 *  0.819041 *  0.548056 * -2.869020    1.000000    
   940  O2    s    0.326336 *  0.923286 *  0.203892 * -2.869020    1.000000    
   941  O2    s    0.414219 *  0.319041 *  0.703892 * -2.869020    1.000000    
   942  O2    s    0.414219 *  0.423286 *  0.048056 * -2.869020    1.000000    
   943  O2    s    0.414219 *  0.819041 *  0.203892 * -2.869020    1.000000    
   944  O2    s    0.414219 *  0.923286 *  0.548056 * -2.869020    1.000000    
   945  O2    s    0.576336 *  0.069041 *  0.453892 * -2.869020    1.000000    
   946  O2    s    0.576336 *  0.173286 *  0.798056 * -2.869020    1.000000    
   947  O2    s    0.576336 *  0.569041 *  0.953892 * -2.869020    1.000000    
   948  O2    s    0.576336 *  0.673286 *  0.298056 * -2.869020    1.000000    
   949  O2    s    0.664219 *  0.069041 *  0.798056 * -2.869020    1.000000    
[...]
   807  O2    s      -0.001184     -0.001869     -0.001353      0.000000
   808  O2    s       0.000268      0.000684      0.000730      0.000000
   809  O2    s       0.005671     -0.000066      0.000253      0.000000
   810  O2    s       0.000749      0.001184      0.000221      0.000000
   811  O2    s      -0.001250     -0.000420     -0.001975      0.000000
   812  O2    s      -0.000120     -0.001923     -0.005552      0.000000
   813  O2    s      -0.001026     -0.000616     -0.000332      0.000000
   814  O2    s       0.000165     -0.001248      0.000561      0.000000
   815  O2    s      -0.001820     -0.004029      0.006154      0.000000
   816  O2    s       0.000899     -0.002912     -0.000720      0.000000
   817  O2    s       0.005526      0.021038      0.025380      0.000000
   818  O2    s       0.007503     -0.009725      0.002436      0.000000
   819  O2    s      -0.000334      0.000376      0.000174      0.000000
   820  O2    s       0.001034     -0.001437      0.000541      0.000000
   821  O2    s       0.007295     -0.004146     -0.014844      0.000000
   822  O2    s      -0.021338     -0.033041     -0.012623      0.000000
   823  O2    s       0.001024     -0.002524     -0.001246      0.000000
   824  O2    s       0.000010     -0.000572     -0.000279      0.000000
   825  O2    s       0.000385     -0.000063     -0.000080      0.000000
   826  O2    s       0.000103      0.000215     -0.001114      0.000000
   827  O2    s      -0.000649     -0.000286     -0.000611      0.000000
   828  O2    s      -0.000946     -0.000568     -0.001175      0.000000
   829  O2    s      -0.004672     -0.000753     -0.000660      0.000000
   830  O2    s      -0.000097     -0.000516      0.000996      0.000000
   831  O2    s      -0.001047      0.000059     -0.000203      0.000000
   832  O2    s      -0.003501      0.001687     -0.000448      0.000000
   833  O2    s      -0.003709     -0.001780      0.001758      0.000000
   834  O2    s      -0.000851      0.000951      0.002546      0.000000
   835  O2    s      -0.001070      0.001018      0.001554      0.000000
   836  O2    s      -0.002130      0.001047     -0.000810      0.000000
   837  O2    s      -0.003300      0.006146      0.006310      0.000000
   838  O2    s       0.009495     -0.002844      0.006208      0.000000
   839  O2    s       0.001838      0.003754     -0.001185      0.000000
   840  O2    s       0.001506      0.001093     -0.001146      0.000000
   841  O2    s      -0.001916     -0.000205     -0.002004      0.000000
   842  O2    s      -0.000981     -0.001069      0.000308      0.000000
   843  O2    s      -0.001244     -0.000159     -0.000830      0.000000
   844  O2    s      -0.001819      0.000217     -0.000003      0.000000
   845  O2    s       0.001687     -0.000445      0.002568      0.000000
   846  O2    s       0.000631     -0.001199     -0.001061      0.000000
   847  O2    s       0.000339      0.005525      0.001184      0.000000
   848  O2    s       0.000748      0.000854     -0.001490      0.000000
   849  O2    s       0.022522      0.037497      0.003536      0.000000
   850  O2    s       0.001251      0.010709      0.000210      0.000000
   851  O2    s      -0.000214      0.000089      0.000916      0.000000
   852  O2    s      -0.001175      0.000359     -0.000510      0.000000
   853  O2    s      -0.000349      0.014281      0.003977      0.000000
   854  O2    s      -0.007454      0.003996     -0.003682      0.000000
   855  O2    s       0.000854      0.001258     -0.000675      0.000000
   856  O2    s       0.000266     -0.000685     -0.000687      0.000000
   857  O2    s      -0.001235      0.000240     -0.000530      0.000000
   858  O2    s      -0.002151     -0.003322      0.000263      0.000000
   859  O2    s       0.000075      0.005310      0.000816      0.000000
   860  O2    s      -0.001555     -0.001272     -0.002156      0.000000
   861  O2    s       0.001045     -0.000726     -0.000536      0.000000
   862  O2    s      -0.000479      0.001212     -0.000918      0.000000
   863  O2    s       0.000876      0.000201      0.000191      0.000000
   864  O2    s       0.003433     -0.001088     -0.002723      0.000000
   865  O2    s      -0.001073     -0.000170      0.000659      0.000000
   866  O2    s      -0.000793     -0.000160     -0.000830      0.000000
   867  O2    s       0.002342     -0.001395     -0.000021      0.000000
   868  O2    s       0.001168      0.000601      0.000353      0.000000
   869  O2    s      -0.002877      0.001417     -0.000816      0.000000
   870  O2    s      -0.000020     -0.000091     -0.001112      0.000000
   871  O2    s      -0.002585     -0.000167      0.000652      0.000000
   872  O2    s       0.000352     -0.001372     -0.001800      0.000000
   873  O2    s       0.002747     -0.001411     -0.003626      0.000000
   874  O2    s      -0.002997      0.002810     -0.001622      0.000000
   875  O2    s       0.000321      0.000583     -0.000223      0.000000
   876  O2    s       0.001170      0.002799     -0.001158      0.000000
   877  O2    s      -0.023486      0.024763     -0.003050      0.000000
   878  O2    s       0.061311     -0.011905      0.008813      0.000000
   879  O2    s       0.000008     -0.000118      0.000277      0.000000
   880  O2    s      -0.000394      0.000967     -0.000485      0.000000
   881  O2    s       0.000119     -0.000984      0.002388      0.000000
   882  O2    s       0.002198      0.000582     -0.000130      0.000000
   883  O2    s       0.002218      0.000971     -0.001883      0.000000
   884  O2    s      -0.006699      0.001307     -0.002784      0.000000
   885  O2    s      -0.002437     -0.001124      0.000905      0.000000
   886  O2    s      -0.000144      0.000083      0.000077      0.000000
   887  O2    s       0.000579     -0.000568      0.000821      0.000000
   888  O2    s       0.002679      0.006545     -0.002156      0.000000
   889  O2    s       0.000227      0.004951     -0.001254      0.000000
   890  O2    s      -0.001040      0.000165     -0.006088      0.000000
   891  O2    s      -0.000571      0.000204      0.000565      0.000000
   892  O2    s       0.000984      0.001304     -0.001403      0.000000
   893  O2    s      -0.003340     -0.001618      0.002319      0.000000
   894  O2    s      -0.001996     -0.000757     -0.000962      0.000000
   895  O2    s      -0.000916     -0.000236     -0.000265      0.000000
   896  O2    s      -0.001167      0.001011      0.000243      0.000000
   897  O2    s       0.000181      0.002552     -0.004799      0.000000
   898  O2    s      -0.000400     -0.002522      0.000129      0.000000
   899  O2    s       0.001098     -0.000365     -0.000446      0.000000
   900  O2    s      -0.001398     -0.004544      0.001534      0.000000
   901  O2    s      -0.000205     -0.001844     -0.001473      0.000000
   902  O2    s      -0.000330     -0.001815     -0.001095      0.000000
   903  O2    s      -0.000813     -0.002982     -0.000050      0.000000
   904  O2    s      -0.001756     -0.000291     -0.002128      0.000000
   905  O2    s       0.000591     -0.003658      0.001947      0.000000
   906  O2    s       0.003148     -0.002951     -0.001624      0.000000
   907  O2    s       0.000812      0.000165      0.000643      0.000000
   908  O2    s      -0.004473     -0.005314     -0.000548      0.000000
   909  O2    s      -0.000578     -0.009086     -0.001198      0.000000
   910  O2    s       0.001821     -0.001788     -0.001926      0.000000
   911  O2    s       0.000755      0.001232      0.000980      0.000000
   912  O2    s       0.000555     -0.004611     -0.003925      0.000000
   913  O2    s       0.001845     -0.050302      0.004601      0.000000
   914  O2    s      -0.000208     -0.001052      0.000485      0.000000
   915  O2    s       0.000138     -0.000571     -0.000698      0.000000
   916  O2    s      -0.000248     -0.048466     -0.031594      0.000000
   917  O2    s      -0.000127     -0.022693     -0.005539      0.000000
   918  O2    s      -0.000428      0.000105     -0.001067      0.000000
   919  O2    s      -0.001059     -0.000192      0.000049      0.000000
   920  O2    s       0.034133     -0.021388      0.007180      0.000000
   921  O2    s      -0.006585     -0.002630     -0.000743      0.000000
   922  O2    s       0.000115     -0.002005      0.001270      0.000000
   923  O2    s       0.000461     -0.000567      0.000913      0.000000
   924  O2    s      -0.000056      0.000441     -0.001097      0.000000
   925  O2    s      -0.000731      0.002610      0.000430      0.000000
   926  O2    s      -0.000332      0.000120      0.000305      0.000000
   927  O2    s      -0.000115     -0.000004     -0.000210      0.000000
   928  O2    s      -0.000845     -0.000690      0.000343      0.000000
   929  O2    s       0.001061      0.001604      0.005690      0.000000
   930  O2    s      -0.006451      0.002046      0.008979      0.000000
   931  O2    s      -0.001842     -0.000020     -0.003329      0.000000
   932  O2    s      -0.000465      0.000885      0.000207      0.000000
   933  O2    s       0.000859     -0.006098      0.005528      0.000000
   934  O2    s       0.001801     -0.000094      0.011577      0.000000
   935  O2    s       0.000044      0.000865      0.000267      0.000000
   936  O2    s       0.000529      0.002851      0.000995      0.000000
   937  O2    s       0.001105      0.001873      0.002594      0.000000
   938  O2    s       0.001163     -0.001958     -0.000969      0.000000
   939  O2    s      -0.003527      0.001586      0.002205      0.000000
   940  O2    s      -0.000960     -0.001874     -0.001218      0.000000
   941  O2    s       0.000949      0.001225     -0.003454      0.000000
   942  O2    s       0.000703     -0.000342      0.002710      0.000000
   943  O2    s      -0.000984      0.000436     -0.000846      0.000000
   944  O2    s      -0.003709     -0.001297     -0.004443      0.000000
   945  O2    s       0.003248      0.007438     -0.010276      0.000000
   946  O2    s      -0.020668     -0.022318     -0.014669      0.000000
   947  O2    s      -0.000446     -0.001508     -0.001666      0.000000
   948  O2    s       0.000429     -0.000749     -0.000222      0.000000
   949  O2    s      -0.003743      0.019810     -0.018401      0.000000
   950  O2    s       0.006904      0.002073     -0.006362      0.000000
   951  O2    s       0.000472     -0.000307     -0.000031      0.000000
   952  O2    s       0.000333     -0.000548      0.000528      0.000000
   953  O2    s      -0.001209     -0.001950      0.001316      0.000000
   954  O2    s       0.000002     -0.000147      0.000377      0.000000
   955  O2    s      -0.000763     -0.000496     -0.001790      0.000000
   956  O2    s      -0.003460      0.002412      0.001660      0.000000
   957  O2    s       0.001154     -0.000849     -0.000738      0.000000
   958  O2    s      -0.000282     -0.000733     -0.000554      0.000000
   959  O2    s       0.000888     -0.001840     -0.002467      0.000000
   960  O2    s      -0.000184      0.000330      0.000131      0.000000
   961  O2    s      -0.000301     -0.002137      0.000161      0.000000
   962  O2    s       0.000069      0.000534     -0.000909      0.000000
   963  O2    s      -0.000085     -0.001395      0.000387      0.000000
   964  O2    s       0.001577      0.001031      0.000385      0.000000
   965  O2    s      -0.001284     -0.001180     -0.002237      0.000000
   966  O2    s      -0.000629      0.004118     -0.002581      0.000000
   967  O2    s       0.000871     -0.000967     -0.000435      0.000000
   968  O2    s       0.000523      0.000799     -0.001172      0.000000
   969  O2    s      -0.000120      0.000076      0.000186      0.000000
   970  O2    s       0.004612     -0.000837     -0.002295      0.000000
   971  O2    s       0.002731      0.001500     -0.001992      0.000000
   972  O2    s       0.000095      0.002656     -0.001223      0.000000
   973  O2    s      -0.016506      0.022899      0.009715      0.000000
   974  O2    s       0.003458      0.004796      0.006226      0.000000
   975  O2    s       0.000343     -0.000534      0.000312      0.000000
   976  O2    s       0.000061      0.001736     -0.000918      0.000000
   977  O2    s       0.000528      0.001947      0.005400      0.000000
   978  O2    s       0.002917      0.006316      0.003237      0.000000
   979  O2    s       0.003091      0.001797     -0.000570      0.000000
   980  O2    s      -0.000595      0.002250      0.000193      0.000000
   981  O2    s       0.000052     -0.000080     -0.001272      0.000000
   982  O2    s      -0.001004      0.002262     -0.001595      0.000000
   983  O2    s      -0.002473      0.004921     -0.006167      0.000000
   984  O2    s       0.000127      0.005809     -0.006139      0.000000
   985  O2    s       0.000862      0.002468      0.003378      0.000000
   986  O2    s      -0.003395     -0.000971      0.000558      0.000000
   987  O2    s      -0.000631     -0.000422      0.000403      0.000000
   988  O2    s      -0.000736      0.000666     -0.000599      0.000000
   989  O2    s      -0.001452     -0.002238     -0.000092      0.000000
   990  O2    s      -0.000143      0.000883     -0.001136      0.000000
   991  O2    s      -0.000625     -0.000063      0.000697      0.000000
   992  O2    s      -0.000054      0.002225     -0.000502      0.000000
   993  O2    s      -0.001092      0.002224     -0.001839      0.000000
   994  O2    s       0.000182     -0.000648     -0.000398      0.000000
   995  O2    s       0.000723     -0.000025      0.000474      0.000000
   996  O2    s      -0.000626     -0.001376     -0.000536      0.000000
   997  O2    s      -0.001491      0.004164     -0.005558      0.000000
   998  O2    s      -0.001230     -0.000327      0.000509      0.000000
   999  O2    s      -0.001277     -0.000284     -0.001563      0.000000
  1000  O2    s      -0.001691      0.000337      0.000696      0.000000
  1001  O2    s      -0.000181     -0.000500     -0.003563      0.000000
  1002  O2    s      -0.001700     -0.003098      0.001397      0.000000
  1003  O2    s       0.001014      0.001827     -0.001111      0.000000
  1004  O2    s      -0.001411     -0.000142     -0.000640      0.000000
  1005  O2    s      -0.003571     -0.002132      0.001386      0.000000
  1006  O2    s       0.000814      0.000388      0.000902      0.000000
  1007  O2    s      -0.000910      0.001535      0.000665      0.000000
  1008  O2    s      -0.001217     -0.004250     -0.001069      0.000000
  1009  O2    s       0.000611     -0.000521      0.002418      0.000000
  1010  O2    s       0.001415     -0.000357      0.000173      0.000000
  1011  O2    s       0.000313     -0.000496      0.000490      0.000000
  1012  O2    s       0.010751     -0.037283      0.015762      0.000000
  1013  O2    s       0.000760     -0.002160     -0.000649      0.000000
  1014  O2    s      -0.000415      0.000413      0.001135      0.000000
  1015  O2    s      -0.000798     -0.000617     -0.002449      0.000000
  1016  O2    s       0.011536     -0.006653     -0.002308      0.000000
  1017  O2    s       0.001601     -0.002375     -0.001812      0.000000
  1018  O2    s       0.001030     -0.000419      0.001354      0.000000
  1019  O2    s       0.001080     -0.000078     -0.001331      0.000000
  1020  O2    s       0.000574      0.001170      0.001397      0.000000
  1021  O2    s      -0.002009      0.001579      0.001059      0.000000
  1022  O2    s       0.001001     -0.001963     -0.000420      0.000000
  1023  O2    s      -0.000649     -0.000342      0.000560      0.000000
  1024  O2    s      -0.000418      0.000038     -0.000384      0.000000
  1025  O2    s      -0.001194     -0.003008      0.000665      0.000000
  1026  O2    s       0.002540      0.001588      0.004925      0.000000
  1027  O2    s       0.000714     -0.000755     -0.000308      0.000000
  1028  O2    s      -0.000237      0.001924      0.000363      0.000000
  1029  O2    s       0.000000      0.001398      0.002881      0.000000
  1030  O2    s      -0.001279     -0.001239      0.006681      0.000000
  1031  O2    s      -0.000982      0.000259     -0.001893      0.000000
  1032  O2    s       0.000348      0.000494      0.000349      0.000000
  1033  O2    s      -0.002782      0.001648     -0.003012      0.000000
  1034  O2    s       0.000817      0.002033      0.002403      0.000000
  1035  O2    s      -0.000442      0.000014     -0.000095      0.000000
  1036  O2    s      -0.000664      0.003164      0.000468      0.000000
  1037  O2    s       0.002252     -0.000924      0.001038      0.000000
  1038  O2    s      -0.000283      0.002147     -0.003944      0.000000
  1039  O2    s      -0.000043      0.000582      0.003222      0.000000
  1040  O2    s      -0.001101     -0.000185      0.001200      0.000000
  1041  O2    s      -0.007525      0.010524     -0.002129      0.000000
  1042  O2    s       0.001529      0.005932     -0.000657      0.000000
  1043  O2    s       0.000670     -0.000716     -0.000625      0.000000
  1044  O2    s      -0.000485      0.000673      0.000189      0.000000
  1045  O2    s       0.004135      0.003296     -0.003177      0.000000
  1046  O2    s       0.000355      0.001521      0.004039      0.000000
  1047  O2    s      -0.001136     -0.001147      0.000584      0.000000
  1048  O2    s      -0.000148      0.000458      0.000492      0.000000
  1049  O2    s       0.000337      0.000327     -0.000338      0.000000
  1050  O2    s       0.000752      0.000893      0.000605      0.000000
  1051  O2    s      -0.000149      0.001485      0.001027      0.000000
  1052  O2    s       0.000248     -0.000887     -0.002447      0.000000
  1053  O2    s       0.001416     -0.000048     -0.001325      0.000000
  1054  O2    s      -0.001347      0.000926      0.000870      0.000000
  1055  O2    s      -0.000760     -0.001361     -0.001466      0.000000
  1056  O2    s      -0.002141      0.001890     -0.001457      0.000000
--------------------------------------------------------------------------------


  Time to end of optimisation =   16071.2988 seconds


  Timing analysis for Gulp :

--------------------------------------------------------------------------------
      Task / Subroutine                                          Time (Seconds)
--------------------------------------------------------------------------------
      Calculation of reciprocal space energy and derivatives   4075.5371
      Calculation of real space energy and derivatives          580.7637
      Calculation of real space energy using symmetry          3855.2871
      Calculation of three-body energy and derivatives         1485.3516
      Calculation of hessian                                     38.3867
      Matrix inversion                                         5853.0469
      Symmetry generation of equivalent positions               124.8437
      Global summation overhead                                   0.0371
--------------------------------------------------------------------------------
      Total CPU time                                          16071.3027
--------------------------------------------------------------------------------


  Dump file written as try1.dump                     
  XTL file written as try1.xtl                      



  **** GULP has completed with   4 warnings - beware! ****

