********************************************************************************
*                       GENERAL UTILITY LATTICE PROGRAM                        *
*                                 Julian Gale                                  *
*                      Nanochemistry Research Institute                        *
*                           Department of Chemistry                            *
*                    Curtin University, Western Australia                      *
********************************************************************************
* Version = 4.3.0 * Last modified =  14th June 2014                            *
********************************************************************************
*  optimise     - perform optimisation run                                     *
*  conv         - constant volume calculation                                  *
*  molecule     - molecule option activated, Coulomb subtract within molecule  *
********************************************************************************

  Job Started  at 11:07.45 24th February   2015                               

  Number of CPUs =     1


  Total number of configurations input =   1

********************************************************************************
*  Input for Configuration =   1 : calcite_104_0.0000                          *
********************************************************************************

  Formula = C48O144Ca48                                                 

  Number of irreducible atoms/shells =     384


  Total number atoms/shells =     384

  Dimensionality = 2               :  Surface



  Surface Cartesian vectors (Angstroms) :

        4.980183   -0.000000    0.000000
        4.980183   24.270662    0.000000

  Surface cell parameters (Angstroms/Degrees):

  a =       4.9802    alpha =  78.4042
  b =      24.7763

  Initial surface area   =    120.872338 Angs**2

  Initial surface dipole =      0.000010 e.Angs

  Temperature of configuration =  0.000     K 

  Mixed fractional/Cartesian coordinates of surface :

--------------------------------------------------------------------------------
   No.  Atomic       x           y          z         Charge      Occupancy
        Label      (Frac)      (Frac)     (Angs)        (e)         (Frac)  
--------------------------------------------------------------------------------
  Region 1 : 
--------------------------------------------------------------------------------
      1 C     c    0.421919 *  0.078081 *  -12.1347 *   1.34354    1.000000    
      2 O     c    0.327506 *  0.046167 *  -12.9011 *   1.01849    1.000000    
      3 O     c    0.263679 *  0.109994 *  -11.3682 *   1.01849    1.000000    
      4 O     c    0.674573 *  0.078081 *  -12.1347 *   1.01849    1.000000    
      5 O     c    0.709619 *  0.037727 *   -9.1010 *   1.01849    1.000000    
      6 C     c    0.962273 *  0.037727 *   -9.1010 *   1.34354    1.000000    
      7 O     c    0.120513 *  0.005814 *   -9.8675 *   1.01849    1.000000    
      8 O     c    0.056686 *  0.069641 *   -8.3345 *   1.01849    1.000000    
      9 Ca    c    0.838586 *  0.161414 *  -12.1347 *   2.00000    1.000000    
     10 Ca    c    0.919293 *  0.080707 *   -6.0673 *   2.00000    1.000000    
     11 Ca    c    0.671919 *  0.328081 *  -12.1347 *   2.00000    1.000000    
     12 C     c    0.795606 *  0.204394 *   -9.1010 *   1.34354    1.000000    
     13 O     c    0.701192 *  0.172480 *   -9.8675 *   1.01849    1.000000    
     14 O     c    0.637366 *  0.236307 *   -8.3345 *   1.01849    1.000000    
     15 O     c    0.048260 *  0.204394 *   -9.1010 *   1.01849    1.000000    
     16 C     c    0.255253 *  0.244747 *  -12.1347 *   1.34354    1.000000    
     17 O     c    0.349666 *  0.276661 *  -11.3682 *   1.01849    1.000000    
     18 O     c    0.002599 *  0.244747 *  -12.1347 *   1.01849    1.000000    
     19 O     c    0.413493 *  0.212834 *  -12.9011 *   1.01849    1.000000    
     20 Ca    c    0.459646 *  0.040353 *   -3.0337 *   2.00000    1.000000    
     21 O     c    0.083306 *  0.164040 *   -6.0673 *   1.01849    1.000000    
     22 C     c    0.335960 *  0.164040 *   -6.0673 *   1.34354    1.000000    
     23 O     c    0.494200 *  0.132127 *   -6.8338 *   1.01849    1.000000    
     24 O     c    0.430373 *  0.195954 *   -5.3009 *   1.01849    1.000000    
     25 O     c    0.994172 *  0.379500 *  -12.9011 *   1.01849    1.000000    
     26 C     c    0.088586 *  0.411414 *  -12.1347 *   1.34354    1.000000    
     27 O     c    0.930345 *  0.443328 *  -11.3682 *   1.01849    1.000000    
     28 O     c    0.341240 *  0.411414 *  -12.1347 *   1.01849    1.000000    
     29 Ca    c    0.212273 *  0.287727 *   -9.1010 *   2.00000    1.000000    
     30 Ca    c    0.378939 *  0.121060 *   -9.1010 *   2.00000    1.000000    
     31 C     c    0.921919 *  0.578081 *  -12.1347 *   1.34354    1.000000    
     32 O     c    0.016333 *  0.609994 *  -11.3682 *   1.01849    1.000000    
     33 O     c    0.080160 *  0.546167 *  -12.9011 *   1.01849    1.000000    
     34 O     c    0.669265 *  0.578081 *  -12.1347 *   1.01849    1.000000    
     35 Ca    c    0.338586 *  0.661414 *  -12.1347 *   2.00000    1.000000    
     36 Ca    c    0.505253 *  0.494747 *  -12.1347 *   2.00000    1.000000    
     37 C     c    0.628939 *  0.371061 *   -9.1010 *   1.34354    1.000000    
     38 O     c    0.723353 *  0.402974 *   -8.3345 *   1.01849    1.000000    
     39 O     c    0.376285 *  0.371061 *   -9.1010 *   1.01849    1.000000    
     40 O     c    0.787180 *  0.339147 *   -9.8675 *   1.01849    1.000000    
     41 Ca    c    0.292980 *  0.207020 *   -3.0337 *   2.00000    1.000000    
     42 Ca    c    0.045606 *  0.454394 *   -9.1010 *   2.00000    1.000000    
     43 C     c    0.876313 *  0.123687 *   -3.0337 *   1.34354    1.000000    
     44 O     c    0.781900 *  0.091773 *   -3.8001 *   1.01849    1.000000    
     45 O     c    0.128967 *  0.123687 *   -3.0337 *   1.01849    1.000000    
     46 O     c    0.718073 *  0.155600 *   -2.2672 *   1.01849    1.000000    
     47 C     c    0.169293 *  0.330707 *   -6.0673 *   1.34354    1.000000    
     48 O     c    0.074879 *  0.298793 *   -6.8338 *   1.01849    1.000000    
     49 O     c    0.011052 *  0.362621 *   -5.3009 *   1.01849    1.000000    
     50 O     c    0.421947 *  0.330707 *   -6.0673 *   1.01849    1.000000    
     51 O     c    0.456992 *  0.290353 *   -3.0337 *   1.01849    1.000000    
     52 C     c    0.709646 *  0.290353 *   -3.0337 *   1.34354    1.000000    
     53 O     c    0.867887 *  0.258440 *   -3.8001 *   1.01849    1.000000    
     54 O     c    0.804060 *  0.322267 *   -2.2672 *   1.01849    1.000000    
     55 O     c    0.367859 *  0.505814 *   -9.8675 *   1.01849    1.000000    
     56 C     c    0.462273 *  0.537727 *   -9.1010 *   1.34354    1.000000    
     57 O     c    0.304032 *  0.569641 *   -8.3345 *   1.01849    1.000000    
     58 O     c    0.714927 *  0.537727 *   -9.1010 *   1.01849    1.000000    
     59 Ca    c    0.585960 *  0.414040 *   -6.0673 *   2.00000    1.000000    
     60 Ca    c    0.752626 *  0.247374 *   -6.0673 *   2.00000    1.000000    
     61 Ca    c    0.171919 *  0.828081 *  -12.1347 *   2.00000    1.000000    
     62 Ca    c    0.712273 *  0.787727 *   -9.1010 *   2.00000    1.000000    
     63 C     c    0.755253 *  0.744747 *  -12.1347 *   1.34354    1.000000    
     64 O     c    0.660839 *  0.712834 *  -12.9011 *   1.01849    1.000000    
     65 O     c    0.007906 *  0.744747 *  -12.1347 *   1.01849    1.000000    
     66 O     c    0.597012 *  0.776661 *  -11.3682 *   1.01849    1.000000    
     67 C     c    0.295606 *  0.704394 *   -9.1010 *   1.34354    1.000000    
     68 O     c    0.390020 *  0.736307 *   -8.3345 *   1.01849    1.000000    
     69 O     c    0.453847 *  0.672480 *   -9.8675 *   1.01849    1.000000    
     70 O     c    0.042952 *  0.704394 *   -9.1010 *   1.01849    1.000000    
     71 O     c    0.335932 *  0.911414 *  -12.1347 *   1.01849    1.000000    
     72 C     c    0.588586 *  0.911414 *  -12.1347 *   1.34354    1.000000    
     73 O     c    0.746826 *  0.879500 *  -12.9011 *   1.01849    1.000000    
     74 O     c    0.682999 *  0.943328 *  -11.3682 *   1.01849    1.000000    
     75 Ca    c    0.878939 *  0.621060 *   -9.1010 *   2.00000    1.000000    
     76 Ca    c    0.419293 *  0.580707 *   -6.0673 *   2.00000    1.000000    
     77 C     c    0.542980 *  0.457020 *   -3.0337 *   1.34354    1.000000    
     78 O     c    0.448566 *  0.425107 *   -3.8001 *   1.01849    1.000000    
     79 O     c    0.384739 *  0.488934 *   -2.2672 *   1.01849    1.000000    
     80 O     c    0.795634 *  0.457020 *   -3.0337 *   1.01849    1.000000    
     81 O     c    0.741546 *  0.632127 *   -6.8338 *   1.01849    1.000000    
     82 C     c    0.835960 *  0.664040 *   -6.0673 *   1.34354    1.000000    
     83 O     c    0.677719 *  0.695954 *   -5.3009 *   1.01849    1.000000    
     84 O     c    0.088614 *  0.664040 *   -6.0673 *   1.01849    1.000000    
     85 Ca    c    0.959646 *  0.540353 *   -3.0337 *   2.00000    1.000000    
     86 C     c    0.002626 *  0.497374 *   -6.0673 *   1.34354    1.000000    
     87 O     c    0.097040 *  0.529287 *   -5.3009 *   1.01849    1.000000    
     88 O     c    0.749972 *  0.497374 *   -6.0673 *   1.01849    1.000000    
     89 O     c    0.160867 *  0.465460 *   -6.8338 *   1.01849    1.000000    
     90 Ca    c    0.126313 *  0.373687 *   -3.0337 *   2.00000    1.000000    
     91 Ca    c    0.545606 *  0.954394 *   -9.1010 *   2.00000    1.000000    
     92 C     c    0.669293 *  0.830707 *   -6.0673 *   1.34354    1.000000    
     93 O     c    0.763706 *  0.862621 *   -5.3009 *   1.01849    1.000000    
     94 O     c    0.827533 *  0.798793 *   -6.8338 *   1.01849    1.000000    
     95 O     c    0.416639 *  0.830707 *   -6.0673 *   1.01849    1.000000    
     96 Ca    c    0.792980 *  0.707020 *   -3.0337 *   2.00000    1.000000    
     97 Ca    c    0.085960 *  0.914040 *   -6.0673 *   2.00000    1.000000    
     98 C     c    0.128939 *  0.871060 *   -9.1010 *   1.34354    1.000000    
     99 O     c    0.034526 *  0.839147 *   -9.8675 *   1.01849    1.000000    
    100 O     c    0.381593 *  0.871060 *   -9.1010 *   1.01849    1.000000    
    101 O     c    0.970699 *  0.902974 *   -8.3345 *   1.01849    1.000000    
    102 Ca    c    0.005253 *  0.994747 *  -12.1347 *   2.00000    1.000000    
    103 Ca    c    0.252626 *  0.747374 *   -6.0673 *   2.00000    1.000000    
    104 C     c    0.376313 *  0.623687 *   -3.0337 *   1.34354    1.000000    
    105 O     c    0.470727 *  0.655600 *   -2.2672 *   1.01849    1.000000    
    106 O     c    0.123659 *  0.623687 *   -3.0337 *   1.01849    1.000000    
    107 O     c    0.534554 *  0.591773 *   -3.8001 *   1.01849    1.000000    
    108 O     c    0.115233 *  0.758440 *   -3.8001 *   1.01849    1.000000    
    109 C     c    0.209646 *  0.790353 *   -3.0337 *   1.34354    1.000000    
    110 O     c    0.051406 *  0.822267 *   -2.2672 *   1.01849    1.000000    
    111 O     c    0.462300 *  0.790353 *   -3.0337 *   1.01849    1.000000    
    112 C     c    0.502626 *  0.997374 *   -6.0673 *   1.34354    1.000000    
    113 O     c    0.408213 *  0.965460 *   -6.8338 *   1.01849    1.000000    
    114 O     c    0.755280 *  0.997374 *   -6.0673 *   1.01849    1.000000    
    115 O     c    0.344386 *  0.029287 *   -5.3009 *   1.01849    1.000000    
    116 C     c    0.042980 *  0.957020 *   -3.0337 *   1.34354    1.000000    
    117 O     c    0.137393 *  0.988934 *   -2.2672 *   1.01849    1.000000    
    118 O     c    0.201220 *  0.925107 *   -3.8001 *   1.01849    1.000000    
    119 O     c    0.790326 *  0.957020 *   -3.0337 *   1.01849    1.000000    
    120 Ca    c    0.626313 *  0.873687 *   -3.0337 *   2.00000    1.000000    
    241 O     s    0.327287 *  0.046093 *  -12.9029 *  -2.13300    1.000000    
    242 O     s    0.263313 *  0.110068 *  -11.3664 *  -2.13300    1.000000    
    243 O     s    0.675156 *  0.078081 *  -12.1347 *  -2.13300    1.000000    
    244 O     s    0.709035 *  0.037727 *   -9.1010 *  -2.13300    1.000000    
    245 O     s    0.120879 *  0.005740 *   -9.8692 *  -2.13300    1.000000    
    246 O     s    0.056904 *  0.069714 *   -8.3328 *  -2.13300    1.000000    
    247 O     s    0.700974 *  0.172407 *   -9.8692 *  -2.13300    1.000000    
    248 O     s    0.637000 *  0.236381 *   -8.3328 *  -2.13300    1.000000    
    249 O     s    0.048843 *  0.204394 *   -9.1010 *  -2.13300    1.000000    
    250 O     s    0.349884 *  0.276735 *  -11.3664 *  -2.13300    1.000000    
    251 O     s    0.002015 *  0.244747 *  -12.1347 *  -2.13300    1.000000    
    252 O     s    0.413858 *  0.212760 *  -12.9029 *  -2.13300    1.000000    
    253 O     s    0.082722 *  0.164040 *   -6.0673 *  -2.13300    1.000000    
    254 O     s    0.494566 *  0.132053 *   -6.8356 *  -2.13300    1.000000    
    255 O     s    0.430591 *  0.196028 *   -5.2991 *  -2.13300    1.000000    
    256 O     s    0.993954 *  0.379427 *  -12.9029 *  -2.13300    1.000000    
    257 O     s    0.929980 *  0.443401 *  -11.3664 *  -2.13300    1.000000    
    258 O     s    0.341823 *  0.411414 *  -12.1347 *  -2.13300    1.000000    
    259 O     s    0.016551 *  0.610068 *  -11.3664 *  -2.13300    1.000000    
    260 O     s    0.080525 *  0.546093 *  -12.9029 *  -2.13300    1.000000    
    261 O     s    0.668682 *  0.578081 *  -12.1347 *  -2.13300    1.000000    
    262 O     s    0.723571 *  0.403048 *   -8.3328 *  -2.13300    1.000000    
    263 O     s    0.375702 *  0.371061 *   -9.1010 *  -2.13300    1.000000    
    264 O     s    0.787545 *  0.339073 *   -9.8692 *  -2.13300    1.000000    
    265 O     s    0.781682 *  0.091700 *   -3.8019 *  -2.13300    1.000000    
    266 O     s    0.129551 *  0.123687 *   -3.0337 *  -2.13300    1.000000    
    267 O     s    0.717707 *  0.155674 *   -2.2654 *  -2.13300    1.000000    
    268 O     s    0.074661 *  0.298720 *   -6.8356 *  -2.13300    1.000000    
    269 O     s    0.010687 *  0.362694 *   -5.2991 *  -2.13300    1.000000    
    270 O     s    0.422530 *  0.330707 *   -6.0673 *  -2.13300    1.000000    
    271 O     s    0.456409 *  0.290353 *   -3.0337 *  -2.13300    1.000000    
    272 O     s    0.868252 *  0.258366 *   -3.8019 *  -2.13300    1.000000    
    273 O     s    0.804278 *  0.322341 *   -2.2654 *  -2.13300    1.000000    
    274 O     s    0.367641 *  0.505740 *   -9.8692 *  -2.13300    1.000000    
    275 O     s    0.303667 *  0.569714 *   -8.3328 *  -2.13300    1.000000    
    276 O     s    0.715510 *  0.537727 *   -9.1010 *  -2.13300    1.000000    
    277 O     s    0.660621 *  0.712760 *  -12.9029 *  -2.13300    1.000000    
    278 O     s    0.008490 *  0.744747 *  -12.1347 *  -2.13300    1.000000    
    279 O     s    0.596647 *  0.776735 *  -11.3664 *  -2.13300    1.000000    
    280 O     s    0.390238 *  0.736381 *   -8.3328 *  -2.13300    1.000000    
    281 O     s    0.454212 *  0.672407 *   -9.8692 *  -2.13300    1.000000    
    282 O     s    0.042369 *  0.704394 *   -9.1010 *  -2.13300    1.000000    
    283 O     s    0.335348 *  0.911414 *  -12.1347 *  -2.13300    1.000000    
    284 O     s    0.747192 *  0.879427 *  -12.9029 *  -2.13300    1.000000    
    285 O     s    0.683218 *  0.943401 *  -11.3664 *  -2.13300    1.000000    
    286 O     s    0.448348 *  0.425033 *   -3.8019 *  -2.13300    1.000000    
    287 O     s    0.384374 *  0.489007 *   -2.2654 *  -2.13300    1.000000    
    288 O     s    0.796217 *  0.457020 *   -3.0337 *  -2.13300    1.000000    
    289 O     s    0.741328 *  0.632053 *   -6.8356 *  -2.13300    1.000000    
    290 O     s    0.677354 *  0.696028 *   -5.2991 *  -2.13300    1.000000    
    291 O     s    0.089197 *  0.664040 *   -6.0673 *  -2.13300    1.000000    
    292 O     s    0.097258 *  0.529361 *   -5.2991 *  -2.13300    1.000000    
    293 O     s    0.749389 *  0.497374 *   -6.0673 *  -2.13300    1.000000    
    294 O     s    0.161232 *  0.465386 *   -6.8356 *  -2.13300    1.000000    
    295 O     s    0.763924 *  0.862694 *   -5.2991 *  -2.13300    1.000000    
    296 O     s    0.827899 *  0.798720 *   -6.8356 *  -2.13300    1.000000    
    297 O     s    0.416055 *  0.830707 *   -6.0673 *  -2.13300    1.000000    
    298 O     s    0.034308 *  0.839073 *   -9.8692 *  -2.13300    1.000000    
    299 O     s    0.382177 *  0.871060 *   -9.1010 *  -2.13300    1.000000    
    300 O     s    0.970334 *  0.903048 *   -8.3328 *  -2.13300    1.000000    
    301 O     s    0.470945 *  0.655674 *   -2.2654 *  -2.13300    1.000000    
    302 O     s    0.123076 *  0.623687 *   -3.0337 *  -2.13300    1.000000    
    303 O     s    0.534919 *  0.591700 *   -3.8019 *  -2.13300    1.000000    
    304 O     s    0.115015 *  0.758366 *   -3.8019 *  -2.13300    1.000000    
    305 O     s    0.051040 *  0.822341 *   -2.2654 *  -2.13300    1.000000    
    306 O     s    0.462884 *  0.790353 *   -3.0337 *  -2.13300    1.000000    
    307 O     s    0.407995 *  0.965387 *   -6.8356 *  -2.13300    1.000000    
    308 O     s    0.755864 *  0.997374 *   -6.0673 *  -2.13300    1.000000    
    309 O     s    0.344020 *  0.029361 *   -5.2991 *  -2.13300    1.000000    
    310 O     s    0.137611 *  0.989007 *   -2.2654 *  -2.13300    1.000000    
    311 O     s    0.201586 *  0.925033 *   -3.8019 *  -2.13300    1.000000    
    312 O     s    0.789742 *  0.957020 *   -3.0337 *  -2.13300    1.000000    
--------------------------------------------------------------------------------
  Region 2 :  Rigid translation fixed in xyz
--------------------------------------------------------------------------------
    121 Ca    c    0.843838    0.156161    -24.2693     2.00000    1.000000    
    122 C     c    0.427172    0.072828    -24.2693     1.34354    1.000000    
    123 O     c    0.521585    0.104741    -23.5029     1.01849    1.000000    
    124 O     c    0.585412    0.040914    -25.0358     1.01849    1.000000    
    125 O     c    0.174518    0.072828    -24.2693     1.01849    1.000000    
    126 O     c    0.873112    0.000561    -22.0021     1.01849    1.000000    
    127 C     c    0.967525    0.032474    -21.2357     1.34354    1.000000    
    128 O     c    0.809285    0.064388    -20.4692     1.01849    1.000000    
    129 O     c    0.220179    0.032474    -21.2357     1.01849    1.000000    
    130 Ca    c    0.677172    0.322828    -24.2693     2.00000    1.000000    
    131 C     c    0.800858    0.199141    -21.2357     1.34354    1.000000    
    132 O     c    0.895272    0.231055    -20.4692     1.01849    1.000000    
    133 O     c    0.959099    0.167228    -22.0021     1.01849    1.000000    
    134 O     c    0.548204    0.199141    -21.2357     1.01849    1.000000    
    135 Ca    c    0.924545    0.075454    -18.2020     2.00000    1.000000    
    136 Ca    c    0.217525    0.282475    -21.2357     2.00000    1.000000    
    137 C     c    0.260505    0.239495    -24.2693     1.34354    1.000000    
    138 O     c    0.166092    0.207581    -25.0358     1.01849    1.000000    
    139 O     c    0.513159    0.239495    -24.2693     1.01849    1.000000    
    140 O     c    0.102265    0.271408    -23.5029     1.01849    1.000000    
    141 O     c    0.841184    0.406161    -24.2693     1.01849    1.000000    
    142 C     c    0.093838    0.406161    -24.2693     1.34354    1.000000    
    143 O     c    0.252079    0.374248    -25.0358     1.01849    1.000000    
    144 O     c    0.188252    0.438075    -23.5029     1.01849    1.000000    
    145 Ca    c    0.384192    0.115808    -21.2357     2.00000    1.000000    
    146 O     c    0.246799    0.126874    -18.9685     1.01849    1.000000    
    147 C     c    0.341212    0.158788    -18.2020     1.34354    1.000000    
    148 O     c    0.182971    0.190701    -17.4355     1.01849    1.000000    
    149 O     c    0.593866    0.158788    -18.2020     1.01849    1.000000    
    150 Ca    c    0.464899    0.035101    -15.1683     2.00000    1.000000    
    151 C     c    0.927172    0.572828    -24.2693     1.34354    1.000000    
    152 O     c    0.832758    0.540914    -25.0358     1.01849    1.000000    
    153 O     c    0.768931    0.604742    -23.5029     1.01849    1.000000    
    154 O     c    0.179826    0.572828    -24.2693     1.01849    1.000000    
    155 Ca    c    0.050859    0.449141    -21.2357     2.00000    1.000000    
    156 Ca    c    0.591212    0.408788    -18.2020     2.00000    1.000000    
    157 C     c    0.634192    0.365808    -21.2357     1.34354    1.000000    
    158 O     c    0.539778    0.333894    -22.0021     1.01849    1.000000    
    159 O     c    0.886846    0.365808    -21.2357     1.01849    1.000000    
    160 O     c    0.475951    0.397721    -20.4692     1.01849    1.000000    
    161 C     c    0.174545    0.325454    -18.2020     1.34354    1.000000    
    162 O     c    0.268959    0.357368    -17.4355     1.01849    1.000000    
    163 O     c    0.332786    0.293541    -18.9685     1.01849    1.000000    
    164 O     c    0.921891    0.325454    -18.2020     1.01849    1.000000    
    165 O     c    0.214871    0.532474    -21.2357     1.01849    1.000000    
    166 C     c    0.467525    0.532474    -21.2357     1.34354    1.000000    
    167 O     c    0.625766    0.500561    -22.0021     1.01849    1.000000    
    168 O     c    0.561939    0.564388    -20.4692     1.01849    1.000000    
    169 Ca    c    0.343838    0.656161    -24.2693     2.00000    1.000000    
    170 Ca    c    0.510505    0.489495    -24.2693     2.00000    1.000000    
    171 Ca    c    0.757879    0.242121    -18.2020     2.00000    1.000000    
    172 C     c    0.881566    0.118434    -15.1683     1.34354    1.000000    
    173 O     c    0.975979    0.150348    -14.4019     1.01849    1.000000    
    174 O     c    0.628912    0.118434    -15.1683     1.01849    1.000000    
    175 O     c    0.039806    0.086521    -15.9348     1.01849    1.000000    
    176 Ca    c    0.298232    0.201768    -15.1683     2.00000    1.000000    
    177 O     c    0.620485    0.253187    -15.9348     1.01849    1.000000    
    178 C     c    0.714899    0.285101    -15.1683     1.34354    1.000000    
    179 O     c    0.556658    0.317014    -14.4019     1.01849    1.000000    
    180 O     c    0.967553    0.285101    -15.1683     1.01849    1.000000    
    181 C     c    0.760505    0.739495    -24.2693     1.34354    1.000000    
    182 O     c    0.854918    0.771408    -23.5029     1.01849    1.000000    
    183 O     c    0.507851    0.739495    -24.2693     1.01849    1.000000    
    184 O     c    0.918746    0.707581    -25.0358     1.01849    1.000000    
    185 Ca    c    0.424545    0.575454    -18.2020     2.00000    1.000000    
    186 Ca    c    0.964899    0.535101    -15.1683     2.00000    1.000000    
    187 Ca    c    0.177172    0.822828    -24.2693     2.00000    1.000000    
    188 C     c    0.300859    0.699141    -21.2357     1.34354    1.000000    
    189 O     c    0.206445    0.667228    -22.0021     1.01849    1.000000    
    190 O     c    0.142618    0.731055    -20.4692     1.01849    1.000000    
    191 O     c    0.553513    0.699141    -21.2357     1.01849    1.000000    
    192 C     c    0.548232    0.451767    -15.1683     1.34354    1.000000    
    193 O     c    0.642646    0.483681    -14.4019     1.01849    1.000000    
    194 O     c    0.706473    0.419854    -15.9348     1.01849    1.000000    
    195 O     c    0.295578    0.451767    -15.1683     1.01849    1.000000    
    196 O     c    0.588558    0.658788    -18.2020     1.01849    1.000000    
    197 C     c    0.841212    0.658788    -18.2020     1.34354    1.000000    
    198 O     c    0.999453    0.626874    -18.9685     1.01849    1.000000    
    199 O     c    0.935626    0.690701    -17.4355     1.01849    1.000000    
    200 O     c    0.499425    0.874248    -25.0358     1.01849    1.000000    
    201 C     c    0.593838    0.906161    -24.2693     1.34354    1.000000    
    202 O     c    0.435598    0.938075    -23.5029     1.01849    1.000000    
    203 O     c    0.846493    0.906161    -24.2693     1.01849    1.000000    
    204 Ca    c    0.717525    0.782474    -21.2357     2.00000    1.000000    
    205 Ca    c    0.884192    0.615808    -21.2357     2.00000    1.000000    
    206 C     c    0.007879    0.492121    -18.2020     1.34354    1.000000    
    207 O     c    0.913465    0.460207    -18.9685     1.01849    1.000000    
    208 O     c    0.260533    0.492121    -18.2020     1.01849    1.000000    
    209 O     c    0.849638    0.524035    -17.4355     1.01849    1.000000    
    210 Ca    c    0.131566    0.368434    -15.1683     2.00000    1.000000    
    211 Ca    c    0.798232    0.701767    -15.1683     2.00000    1.000000    
    212 Ca    c    0.550858    0.949141    -21.2357     2.00000    1.000000    
    213 C     c    0.674545    0.825454    -18.2020     1.34354    1.000000    
    214 O     c    0.580132    0.793541    -18.9685     1.01849    1.000000    
    215 O     c    0.516305    0.857368    -17.4355     1.01849    1.000000    
    216 O     c    0.927199    0.825454    -18.2020     1.01849    1.000000    
    217 Ca    c    0.010505    0.989495    -24.2693     2.00000    1.000000    
    218 C     c    0.134192    0.865808    -21.2357     1.34354    1.000000    
    219 O     c    0.228605    0.897721    -20.4692     1.01849    1.000000    
    220 O     c    0.881538    0.865808    -21.2357     1.01849    1.000000    
    221 O     c    0.292432    0.833894    -22.0021     1.01849    1.000000    
    222 C     c    0.381566    0.618434    -15.1683     1.34354    1.000000    
    223 O     c    0.287152    0.586521    -15.9348     1.01849    1.000000    
    224 O     c    0.634220    0.618434    -15.1683     1.01849    1.000000    
    225 O     c    0.223325    0.650348    -14.4019     1.01849    1.000000    
    226 O     c    0.962245    0.785101    -15.1683     1.01849    1.000000    
    227 C     c    0.214899    0.785101    -15.1683     1.34354    1.000000    
    228 O     c    0.373140    0.753187    -15.9348     1.01849    1.000000    
    229 O     c    0.309313    0.817014    -14.4019     1.01849    1.000000    
    230 Ca    c    0.091212    0.908788    -18.2020     2.00000    1.000000    
    231 Ca    c    0.257879    0.742121    -18.2020     2.00000    1.000000    
    232 C     c    0.507879    0.992121    -18.2020     1.34354    1.000000    
    233 O     c    0.602292    0.024035    -17.4355     1.01849    1.000000    
    234 O     c    0.255225    0.992121    -18.2020     1.01849    1.000000    
    235 O     c    0.666119    0.960207    -18.9685     1.01849    1.000000    
    236 C     c    0.048232    0.951768    -15.1683     1.34354    1.000000    
    237 O     c    0.953819    0.919854    -15.9348     1.01849    1.000000    
    238 O     c    0.889992    0.983681    -14.4019     1.01849    1.000000    
    239 O     c    0.300886    0.951768    -15.1683     1.01849    1.000000    
    240 Ca    c    0.631566    0.868434    -15.1683     2.00000    1.000000    
    313 O     s    0.521803    0.104815    -23.5011    -2.13300    1.000000    
    314 O     s    0.585778    0.040841    -25.0376    -2.13300    1.000000    
    315 O     s    0.173934    0.072828    -24.2693    -2.13300    1.000000    
    316 O     s    0.872894    0.000487    -22.0039    -2.13300    1.000000    
    317 O     s    0.808919    0.064462    -20.4674    -2.13300    1.000000    
    318 O     s    0.220763    0.032474    -21.2357    -2.13300    1.000000    
    319 O     s    0.895490    0.231128    -20.4674    -2.13300    1.000000    
    320 O     s    0.959465    0.167154    -22.0039    -2.13300    1.000000    
    321 O     s    0.547621    0.199141    -21.2357    -2.13300    1.000000    
    322 O     s    0.165873    0.207507    -25.0376    -2.13300    1.000000    
    323 O     s    0.513743    0.239495    -24.2693    -2.13300    1.000000    
    324 O     s    0.101899    0.271482    -23.5011    -2.13300    1.000000    
    325 O     s    0.840601    0.406161    -24.2693    -2.13300    1.000000    
    326 O     s    0.252444    0.374174    -25.0376    -2.13300    1.000000    
    327 O     s    0.188470    0.438149    -23.5011    -2.13300    1.000000    
    328 O     s    0.246581    0.126800    -18.9702    -2.13300    1.000000    
    329 O     s    0.182606    0.190775    -17.4338    -2.13300    1.000000    
    330 O     s    0.594450    0.158788    -18.2020    -2.13300    1.000000    
    331 O     s    0.832540    0.540841    -25.0376    -2.13300    1.000000    
    332 O     s    0.768566    0.604815    -23.5011    -2.13300    1.000000    
    333 O     s    0.180409    0.572828    -24.2693    -2.13300    1.000000    
    334 O     s    0.539560    0.333821    -22.0039    -2.13300    1.000000    
    335 O     s    0.887429    0.365808    -21.2357    -2.13300    1.000000    
    336 O     s    0.475586    0.397795    -20.4674    -2.13300    1.000000    
    337 O     s    0.269177    0.357442    -17.4337    -2.13300    1.000000    
    338 O     s    0.333151    0.293467    -18.9702    -2.13300    1.000000    
    339 O     s    0.921308    0.325454    -18.2020    -2.13300    1.000000    
    340 O     s    0.214288    0.532474    -21.2357    -2.13300    1.000000    
    341 O     s    0.626131    0.500487    -22.0039    -2.13300    1.000000    
    342 O     s    0.562157    0.564462    -20.4674    -2.13300    1.000000    
    343 O     s    0.976197    0.150421    -14.4001    -2.13300    1.000000    
    344 O     s    0.628328    0.118434    -15.1683    -2.13300    1.000000    
    345 O     s    0.040172    0.086447    -15.9366    -2.13300    1.000000    
    346 O     s    0.620267    0.253114    -15.9366    -2.13300    1.000000    
    347 O     s    0.556293    0.317088    -14.4001    -2.13300    1.000000    
    348 O     s    0.968136    0.285101    -15.1683    -2.13300    1.000000    
    349 O     s    0.855137    0.771482    -23.5011    -2.13300    1.000000    
    350 O     s    0.507268    0.739495    -24.2693    -2.13300    1.000000    
    351 O     s    0.919111    0.707507    -25.0376    -2.13300    1.000000    
    352 O     s    0.206227    0.667154    -22.0039    -2.13300    1.000000    
    353 O     s    0.142253    0.731128    -20.4674    -2.13300    1.000000    
    354 O     s    0.554096    0.699141    -21.2357    -2.13300    1.000000    
    355 O     s    0.642864    0.483755    -14.4001    -2.13300    1.000000    
    356 O     s    0.706838    0.419780    -15.9366    -2.13300    1.000000    
    357 O     s    0.294995    0.451767    -15.1683    -2.13300    1.000000    
    358 O     s    0.587975    0.658788    -18.2020    -2.13300    1.000000    
    359 O     s    0.999818    0.626800    -18.9702    -2.13300    1.000000    
    360 O     s    0.935844    0.690775    -17.4337    -2.13300    1.000000    
    361 O     s    0.499207    0.874174    -25.0376    -2.13300    1.000000    
    362 O     s    0.435232    0.938149    -23.5011    -2.13300    1.000000    
    363 O     s    0.847076    0.906161    -24.2693    -2.13300    1.000000    
    364 O     s    0.913247    0.460134    -18.9702    -2.13300    1.000000    
    365 O     s    0.261116    0.492121    -18.2020    -2.13300    1.000000    
    366 O     s    0.849273    0.524108    -17.4337    -2.13300    1.000000    
    367 O     s    0.579914    0.793467    -18.9702    -2.13300    1.000000    
    368 O     s    0.515939    0.857442    -17.4338    -2.13300    1.000000    
    369 O     s    0.927783    0.825454    -18.2020    -2.13300    1.000000    
    370 O     s    0.228824    0.897795    -20.4674    -2.13300    1.000000    
    371 O     s    0.880954    0.865808    -21.2357    -2.13300    1.000000    
    372 O     s    0.292798    0.833821    -22.0039    -2.13300    1.000000    
    373 O     s    0.286934    0.586447    -15.9366    -2.13300    1.000000    
    374 O     s    0.634803    0.618434    -15.1683    -2.13300    1.000000    
    375 O     s    0.222960    0.650421    -14.4001    -2.13300    1.000000    
    376 O     s    0.961661    0.785101    -15.1683    -2.13300    1.000000    
    377 O     s    0.373505    0.753114    -15.9366    -2.13300    1.000000    
    378 O     s    0.309531    0.817088    -14.4001    -2.13300    1.000000    
    379 O     s    0.602511    0.024108    -17.4338    -2.13300    1.000000    
    380 O     s    0.254641    0.992121    -18.2020    -2.13300    1.000000    
    381 O     s    0.666485    0.960134    -18.9702    -2.13300    1.000000    
    382 O     s    0.953601    0.919780    -15.9366    -2.13300    1.000000    
    383 O     s    0.889626    0.983755    -14.4001    -2.13300    1.000000    
    384 O     s    0.301470    0.951768    -15.1683    -2.13300    1.000000    
--------------------------------------------------------------------------------



  Growth Slice : 

  Number of formula units in slice =    6

  Mixed fractional/Cartesian coordinates

--------------------------------------------------------------------------------
   No.  Atomic       x           y          z         Charge      Occupancy
        Label      (Frac)      (Frac)     (Angs)        (e)         (Frac)  
--------------------------------------------------------------------------------
     20 Ca    c    0.459646    0.040353     -3.0337      2.0000    1.000000
     41 Ca    c    0.292980    0.207020     -3.0337      2.0000    1.000000
     43 C     c    0.876313    0.123687     -3.0337      1.3435    1.000000
     44 O     c    0.781900    0.091773     -3.8001      1.0185    1.000000
     45 O     c    0.128967    0.123687     -3.0337      1.0185    1.000000
     46 O     c    0.718073    0.155600     -2.2672      1.0185    1.000000
     51 O     c    0.456992    0.290353     -3.0337      1.0185    1.000000
     52 C     c    0.709646    0.290353     -3.0337      1.3435    1.000000
     53 O     c    0.867887    0.258440     -3.8001      1.0185    1.000000
     54 O     c    0.804060    0.322267     -2.2672      1.0185    1.000000
     77 C     c    0.542980    0.457020     -3.0337      1.3435    1.000000
     78 O     c    0.448566    0.425107     -3.8001      1.0185    1.000000
     79 O     c    0.384739    0.488934     -2.2672      1.0185    1.000000
     80 O     c    0.795634    0.457020     -3.0337      1.0185    1.000000
     85 Ca    c    0.959646    0.540353     -3.0337      2.0000    1.000000
     90 Ca    c    0.126313    0.373687     -3.0337      2.0000    1.000000
     96 Ca    c    0.792980    0.707020     -3.0337      2.0000    1.000000
    104 C     c    0.376313    0.623687     -3.0337      1.3435    1.000000
    105 O     c    0.470727    0.655600     -2.2672      1.0185    1.000000
    106 O     c    0.123659    0.623687     -3.0337      1.0185    1.000000
    107 O     c    0.534554    0.591773     -3.8001      1.0185    1.000000
    108 O     c    0.115233    0.758440     -3.8001      1.0185    1.000000
    109 C     c    0.209646    0.790353     -3.0337      1.3435    1.000000
    110 O     c    0.051406    0.822267     -2.2672      1.0185    1.000000
    111 O     c    0.462300    0.790353     -3.0337      1.0185    1.000000
    116 C     c    0.042980    0.957020     -3.0337      1.3435    1.000000
    117 O     c    0.137393    0.988934     -2.2672      1.0185    1.000000
    118 O     c    0.201220    0.925107     -3.8001      1.0185    1.000000
    119 O     c    0.790326    0.957020     -3.0337      1.0185    1.000000
    120 Ca    c    0.626313    0.873687     -3.0337      2.0000    1.000000
    265 O     s    0.781682    0.091700     -3.8019     -2.1330    1.000000
    266 O     s    0.129551    0.123687     -3.0337     -2.1330    1.000000
    267 O     s    0.717707    0.155674     -2.2654     -2.1330    1.000000
    271 O     s    0.456409    0.290353     -3.0337     -2.1330    1.000000
    272 O     s    0.868252    0.258366     -3.8019     -2.1330    1.000000
    273 O     s    0.804278    0.322341     -2.2654     -2.1330    1.000000
    286 O     s    0.448348    0.425033     -3.8019     -2.1330    1.000000
    287 O     s    0.384374    0.489007     -2.2654     -2.1330    1.000000
    288 O     s    0.796217    0.457020     -3.0337     -2.1330    1.000000
    301 O     s    0.470945    0.655674     -2.2654     -2.1330    1.000000
    302 O     s    0.123076    0.623687     -3.0337     -2.1330    1.000000
    303 O     s    0.534919    0.591700     -3.8019     -2.1330    1.000000
    304 O     s    0.115015    0.758366     -3.8019     -2.1330    1.000000
    305 O     s    0.051040    0.822341     -2.2654     -2.1330    1.000000
    306 O     s    0.462884    0.790353     -3.0337     -2.1330    1.000000
    310 O     s    0.137611    0.989007     -2.2654     -2.1330    1.000000
    311 O     s    0.201586    0.925033     -3.8019     -2.1330    1.000000
    312 O     s    0.789742    0.957020     -3.0337     -2.1330    1.000000
--------------------------------------------------------------------------------



  Molecule list generated from bond lengths :

  Total number of molecules =    48

--------------------------------------------------------------------------------
Molecule No./:  Atoms
Periodicity  :  
--------------------------------------------------------------------------------
     1  0    : C    c     1 O    c     2 O    c     3 O    c     4 O    s   241
             : O    s   242 O    s   243
     2  0    : O    c     5 C    c     6 O    c     7 O    c     8 O    s   244
             : O    s   245 O    s   246
     3  0    : C    c    12 O    c    13 O    c    14 O    c    15 O    s   247
             : O    s   248 O    s   249
     4  0    : C    c    16 O    c    17 O    c    18 O    c    19 O    s   250
             : O    s   251 O    s   252
     5  0    : O    c    21 C    c    22 O    c    23 O    c    24 O    s   253
             : O    s   254 O    s   255
     6  0    : O    c    25 C    c    26 O    c    27 O    c    28 O    s   256
             : O    s   257 O    s   258
     7  0    : C    c    31 O    c    32 O    c    33 O    c    34 O    s   259
             : O    s   260 O    s   261
     8  0    : C    c    37 O    c    38 O    c    39 O    c    40 O    s   262
             : O    s   263 O    s   264
     9  0    : C    c    43 O    c    44 O    c    45 O    c    46 O    s   265
             : O    s   266 O    s   267
    10  0    : C    c    47 O    c    48 O    c    49 O    c    50 O    s   268
             : O    s   269 O    s   270
    11  0    : O    c    51 C    c    52 O    c    53 O    c    54 O    s   271
             : O    s   272 O    s   273
    12  0    : O    c    55 C    c    56 O    c    57 O    c    58 O    s   274
             : O    s   275 O    s   276
    13  0    : C    c    63 O    c    64 O    c    65 O    c    66 O    s   277
             : O    s   278 O    s   279
    14  0    : C    c    67 O    c    68 O    c    69 O    c    70 O    s   280
             : O    s   281 O    s   282
    15  0    : O    c    71 C    c    72 O    c    73 O    c    74 O    s   283
             : O    s   284 O    s   285
    16  0    : C    c    77 O    c    78 O    c    79 O    c    80 O    s   286
             : O    s   287 O    s   288
    17  0    : O    c    81 C    c    82 O    c    83 O    c    84 O    s   289
             : O    s   290 O    s   291
    18  0    : C    c    86 O    c    87 O    c    88 O    c    89 O    s   292
             : O    s   293 O    s   294
    19  0    : C    c    92 O    c    93 O    c    94 O    c    95 O    s   295
             : O    s   296 O    s   297
    20  0    : C    c    98 O    c    99 O    c   100 O    c   101 O    s   298
             : O    s   299 O    s   300
    21  0    : C    c   104 O    c   105 O    c   106 O    c   107 O    s   301
             : O    s   302 O    s   303
    22  0    : O    c   108 C    c   109 O    c   110 O    c   111 O    s   304
             : O    s   305 O    s   306
    23  0    : C    c   112 O    c   113 O    c   114 O    c   115 O    s   307
             : O    s   308 O    s   309
    24  0    : C    c   116 O    c   117 O    c   118 O    c   119 O    s   310
             : O    s   311 O    s   312
    25  0    : C    c   122 O    c   123 O    c   124 O    c   125 O    s   313
             : O    s   314 O    s   315
    26  0    : O    c   126 C    c   127 O    c   128 O    c   129 O    s   316
             : O    s   317 O    s   318
    27  0    : C    c   131 O    c   132 O    c   133 O    c   134 O    s   319
             : O    s   320 O    s   321
    28  0    : C    c   137 O    c   138 O    c   139 O    c   140 O    s   322
             : O    s   323 O    s   324
    29  0    : O    c   141 C    c   142 O    c   143 O    c   144 O    s   325
             : O    s   326 O    s   327
    30  0    : O    c   146 C    c   147 O    c   148 O    c   149 O    s   328
             : O    s   329 O    s   330
    31  0    : C    c   151 O    c   152 O    c   153 O    c   154 O    s   331
             : O    s   332 O    s   333
    32  0    : C    c   157 O    c   158 O    c   159 O    c   160 O    s   334
             : O    s   335 O    s   336
    33  0    : C    c   161 O    c   162 O    c   163 O    c   164 O    s   337
             : O    s   338 O    s   339
    34  0    : O    c   165 C    c   166 O    c   167 O    c   168 O    s   340
             : O    s   341 O    s   342
    35  0    : C    c   172 O    c   173 O    c   174 O    c   175 O    s   343
             : O    s   344 O    s   345
    36  0    : O    c   177 C    c   178 O    c   179 O    c   180 O    s   346
             : O    s   347 O    s   348
    37  0    : C    c   181 O    c   182 O    c   183 O    c   184 O    s   349
             : O    s   350 O    s   351
    38  0    : C    c   188 O    c   189 O    c   190 O    c   191 O    s   352
             : O    s   353 O    s   354
    39  0    : C    c   192 O    c   193 O    c   194 O    c   195 O    s   355
             : O    s   356 O    s   357
    40  0    : O    c   196 C    c   197 O    c   198 O    c   199 O    s   358
             : O    s   359 O    s   360
    41  0    : O    c   200 C    c   201 O    c   202 O    c   203 O    s   361
             : O    s   362 O    s   363
    42  0    : C    c   206 O    c   207 O    c   208 O    c   209 O    s   364
             : O    s   365 O    s   366
    43  0    : C    c   213 O    c   214 O    c   215 O    c   216 O    s   367
             : O    s   368 O    s   369
    44  0    : C    c   218 O    c   219 O    c   220 O    c   221 O    s   370
             : O    s   371 O    s   372
    45  0    : C    c   222 O    c   223 O    c   224 O    c   225 O    s   373
             : O    s   374 O    s   375
    46  0    : O    c   226 C    c   227 O    c   228 O    c   229 O    s   376
             : O    s   377 O    s   378
    47  0    : C    c   232 O    c   233 O    c   234 O    c   235 O    s   379
             : O    s   380 O    s   381
    48  0    : C    c   236 O    c   237 O    c   238 O    c   239 O    s   382
             : O    s   383 O    s   384
--------------------------------------------------------------------------------


********************************************************************************
*  General input information                                                   *
********************************************************************************

  Species output for all configurations : 

--------------------------------------------------------------------------------
  Species    Type    Atomic    Atomic    Charge       Radii (Angs)     Library
                     Number     Mass       (e)     Cova   Ionic  VDW   Symbol
--------------------------------------------------------------------------------
    Cd       Core       48     112.41   2.000000   0.000  0.000  2.520          
    Mn       Core       25      54.94   2.000000   0.000  0.000  2.010          
    Mg       Core       12      24.31   2.000000   1.100  0.000  1.640          
    Zn       Core       30      65.39   2.000000   0.000  0.000  2.160          
    Ni       Core       28      58.69   2.000000   0.000  0.000  1.810          
    Co       Core       27      58.93   2.000000   0.000  0.000  1.990          
    Fe       Core       26      55.85   2.000000   0.000  0.000  2.000          
    Ca       Core       20      40.08   2.000000   0.990  0.000  2.750          
    C        Core        6      12.01   1.343539   0.770  0.000  1.530          
    O        Core        8      16.00   1.018487   0.730  0.000  1.360          
    O        Shell       8       0.00  -2.133000   0.730  0.000  1.360          
--------------------------------------------------------------------------------


  Lattice summation method               =    Ewald          (3-D)
                                         =    Parry          (2-D)
                                         =    Saunders et al (1-D)
  Accuracy factor for lattice sums       =   12.000


  Time limit = Infinity


!!!!!!!!!!!!!!!!!!!!!!!!!!!!!!!!!!!!!!!!!!!!!!!!!!!!!!!!!!!!!!!!!!!!!!!!!!!!!!!!
!! WARNING : potential   1 is acting on the core of an ion with a shell
!!!!!!!!!!!!!!!!!!!!!!!!!!!!!!!!!!!!!!!!!!!!!!!!!!!!!!!!!!!!!!!!!!!!!!!!!!!!!!!!



!!!!!!!!!!!!!!!!!!!!!!!!!!!!!!!!!!!!!!!!!!!!!!!!!!!!!!!!!!!!!!!!!!!!!!!!!!!!!!!!
!! WARNING : potential  11 is acting on the core of an ion with a shell
!!!!!!!!!!!!!!!!!!!!!!!!!!!!!!!!!!!!!!!!!!!!!!!!!!!!!!!!!!!!!!!!!!!!!!!!!!!!!!!!


  Maximum range for interatomic potentials =    100000.000000 Angstroms

  General interatomic potentials :

--------------------------------------------------------------------------------
Atom  Types   Potential         A         B         C         D     Cutoffs(Ang)
  1     2                                                            Min    Max 
--------------------------------------------------------------------------------
Ca   c O    s Buckingham    0.215E+04 0.289      0.00      0.00     0.000 10.000
Cd   c O    s Buckingham    0.433E+04 0.256      0.00      0.00     0.000 10.000
Mg   c O    s Buckingham    0.104E+04 0.289      0.00      0.00     0.000 10.000
Co   c O    s Buckingham    0.110E+04 0.286      0.00      0.00     0.000 10.000
Fe   c O    s Buckingham    0.215E+04 0.265      0.00      0.00     0.000 10.000
Mn   c O    s Buckingham    0.200E+04 0.273      0.00      0.00     0.000 10.000
Ni   c O    s Buckingham    0.163E+04 0.267      0.00      0.00     0.000 10.000
Zn   c O    s Buckingham    0.103E+04 0.289      0.00      0.00     0.000 10.000
O    c O    s Spring (c-s)   52.7     0.100E+05  0.00      0.00     0.000  0.800
--------------------------------------------------------------------------------

  Intramolecular potentials :

--------------------------------------------------------------------------------
Atom  Types   Potential         A         B         C         D     Cutoffs(Ang)
  1     2                                                            Min    Max 
--------------------------------------------------------------------------------
O    c O    c Buckingham    0.403E+04 0.245      0.00      0.00     0.000  2.500
C    c O    c Morse          5.00      2.52      1.20      0.00     0.000 1 Bond
--------------------------------------------------------------------------------

  Intermolecular potentials :

--------------------------------------------------------------------------------
Atom  Types   Potential         A         B         C         D     Cutoffs(Ang)
  1     2                                                            Min    Max 
--------------------------------------------------------------------------------
O    s O    s Buckingham    0.647E+05 0.199      21.8      0.00     0.000 15.000
--------------------------------------------------------------------------------

  Intramolecular Three-body potentials :

  Harmonic form:

--------------------------------------------------------------------------------
Atom    Atom    Atom           Force Constants            Theta     Cutoffs  
  1       2       3     (eVrad**-2/eVrad**-3/eVrad**-4)   (deg)  1-2  1-3  2-3
--------------------------------------------------------------------------------
C     c O     c O     c  1.777        0.0000    0.0000   120.000     Bonded
--------------------------------------------------------------------------------

  Intramolecular Four-body potentials :

  Out of plane potentials:

--------------------------------------------------------------------------------
         Atom Types              Force constants              Cutoffs
   1       2       3       4      (eV/Angs**k)          1-2      1-3      1-4   
--------------------------------------------------------------------------------
C     c O     c O     c O     c  8.828     0.000              Bonded
--------------------------------------------------------------------------------

********************************************************************************
*  Output for configuration   1 : calcite_104_0.0000                           *
********************************************************************************


  Components of energy : 

--------------------------------------------------------------------------------
  Interatomic potentials     =        -236.73250289 eV
  Three-body potentials      =           0.00000000 eV
  Four-body potentials       =           0.00000000 eV
  Improper torsions          =           0.00000000 eV
  Out of plane potentials    =           0.00000001 eV
  Monopole - monopole (real) =         -66.52628888 eV
  Monopole - monopole (recip)=        -709.10589918 eV
  Monopole - monopole (total)=        -775.63218806 eV
  Region 1-2 interaction     =         -10.67193663 eV
  Region 2-2 interaction     =       -1012.36467781 eV
--------------------------------------------------------------------------------
  Total lattice energy       =       -2035.40130538 eV
--------------------------------------------------------------------------------
  Total lattice energy       =         -196385.1120 kJ/(mole unit cells)
--------------------------------------------------------------------------------
  Bulk energy                =         -1023.043030 eV    
  Surface energy (region 1)  =             0.708144 J/m**2
--------------------------------------------------------------------------------
  Attachment energy          =         -10.69495427 eV
  Attachment energy/unit     =          -1.78249238 eV
--------------------------------------------------------------------------------


  Number of variables =      576

  Maximum number of calculations  =          1000
  Maximum Hessian update interval =            10
  Maximum step size               =   1.000000000
  Maximum parameter tolerance     =   0.000010000
  Maximum function  tolerance     =   0.000010000
  Maximum gradient  tolerance     =   0.001000000
  Maximum gradient  component     =   0.010000000

  Symmetry not applied to optimisation

  Newton-Raphson optimiser to be used

  BFGS hessian update to be used

  Minimiser to switch to RFO
  When gradient norm is less than     0.010000

  Start of surface optimisation :

  Cycle:      0 Energy:     -2035.401305  Gnorm:      0.098543  CPU:    1.092
  ** Hessian calculated **
  Cycle:      1 Energy:     -2036.040216  Gnorm:      0.063252  CPU:    2.711
  Cycle:      2 Energy:     -2036.166043  Gnorm:      0.032363  CPU:    4.768
  Cycle:      3 Energy:     -2036.253867  Gnorm:      0.059584  CPU:    6.432
  Cycle:      4 Energy:     -2036.312985  Gnorm:      0.061147  CPU:    8.067
  Cycle:      5 Energy:     -2036.361370  Gnorm:      0.039754  CPU:    9.667
  Cycle:      6 Energy:     -2036.388841  Gnorm:      0.039181  CPU:   11.201
  Cycle:      7 Energy:     -2036.421656  Gnorm:      0.045807  CPU:   13.206
  Cycle:      8 Energy:     -2036.454116  Gnorm:      0.044226  CPU:   15.207
  Cycle:      9 Energy:     -2036.485432  Gnorm:      0.037963  CPU:   17.355
  Cycle:     10 Energy:     -2036.517535  Gnorm:      0.033608  CPU:   19.505
  ** Hessian calculated **
  Cycle:     11 Energy:     -2036.532714  Gnorm:      0.024778  CPU:   22.153
  Cycle:     12 Energy:     -2036.544033  Gnorm:      0.020398  CPU:   23.818
  Cycle:     13 Energy:     -2036.550935  Gnorm:      0.015185  CPU:   25.957
  Cycle:     14 Energy:     -2036.555881  Gnorm:      0.018022  CPU:   27.608
  Cycle:     15 Energy:     -2036.559833  Gnorm:      0.013198  CPU:   29.647
  Cycle:     16 Energy:     -2036.564574  Gnorm:      0.013284  CPU:   31.673
  Cycle:     17 Energy:     -2036.569935  Gnorm:      0.014792  CPU:   33.786
  Cycle:     18 Energy:     -2036.574732  Gnorm:      0.015873  CPU:   35.712
  Cycle:     19 Energy:     -2036.580888  Gnorm:      0.015961  CPU:   37.610
  Cycle:     20 Energy:     -2036.591404  Gnorm:      0.024133  CPU:   39.599
  ** Hessian calculated **
  Cycle:     21 Energy:     -2036.596456  Gnorm:      0.012398  CPU:   42.068
  Cycle:     22 Energy:     -2036.599096  Gnorm:      0.008723  CPU:   43.813
  ** Hessian has required structure
  Cycle:     23 Energy:     -2036.599379  Gnorm:      0.010096  CPU:   46.608
  ** Hessian has required structure
  Cycle:     24 Energy:     -2036.600330  Gnorm:      0.010843  CPU:   49.035
  ** Hessian has required structure
  Cycle:     25 Energy:     -2036.600794  Gnorm:      0.008420  CPU:   51.467
  ** Hessian has required structure
  Cycle:     26 Energy:     -2036.601512  Gnorm:      0.012447  CPU:   54.322
  ** Hessian has required structure
  Cycle:     27 Energy:     -2036.603338  Gnorm:      0.014057  CPU:   57.210
  ** Hessian has required structure
  Cycle:     28 Energy:     -2036.604220  Gnorm:      0.011710  CPU:   59.553
  ** Hessian has required structure
  Cycle:     29 Energy:     -2036.604974  Gnorm:      0.008830  CPU:   62.106
  ** Hessian has required structure
  Cycle:     30 Energy:     -2036.605782  Gnorm:      0.011813  CPU:   64.415
  ** Hessian has required structure
  Cycle:     31 Energy:     -2036.635366  Gnorm:      0.022362  CPU:   67.723
  ** Hessian has required structure
  Cycle:     32 Energy:     -2036.642242  Gnorm:      0.005786  CPU:   71.212
  ** Hessian has required structure
  Cycle:     33 Energy:     -2036.646080  Gnorm:      0.003041  CPU:   75.027
  ** Hessian has required structure
  Cycle:     34 Energy:     -2036.646942  Gnorm:      0.001896  CPU:   78.429
  ** Hessian has required structure
  Cycle:     35 Energy:     -2036.647044  Gnorm:      0.000709  CPU:   81.664
  ** Hessian has required structure
  Cycle:     36 Energy:     -2036.647073  Gnorm:      0.000226  CPU:   84.692
  ** Hessian has required structure
  Cycle:     37 Energy:     -2036.647076  Gnorm:      0.000095  CPU:   87.466
  ** Hessian has required structure


  **** Optimisation achieved ****


  Final energy =   -2036.64707625 eV
  Final Gnorm  =       0.00003112

  Components of energy : 

--------------------------------------------------------------------------------
  Interatomic potentials     =        -233.81711367 eV
  Three-body potentials      =           0.08338900 eV
  Four-body potentials       =           0.00000000 eV
  Improper torsions          =           0.00000000 eV
  Out of plane potentials    =           0.01724100 eV
  Monopole - monopole (real) =         -70.75322432 eV
  Monopole - monopole (recip)=        -709.15529171 eV
  Monopole - monopole (total)=        -779.90851603 eV
  Region 1-2 interaction     =         -10.65739874 eV
  Region 2-2 interaction     =       -1012.36467781 eV
--------------------------------------------------------------------------------
  Total lattice energy       =       -2036.64707625 eV
--------------------------------------------------------------------------------
  Total lattice energy       =         -196505.3099 kJ/(mole unit cells)
--------------------------------------------------------------------------------
  Bulk energy                =         -1023.043030 eV    
  Surface energy (region 1)  =             0.542051 J/m**2
--------------------------------------------------------------------------------
  Attachment energy          =         -11.00117922 eV
  Attachment energy/unit     =          -1.83352987 eV
--------------------------------------------------------------------------------

  Final fractional/Cartesian coordinates of atoms :

--------------------------------------------------------------------------------
   No.  Atomic        x           y          z          Radius
        Label       (Frac)      (Frac)     (Angs)       (Angs) 
--------------------------------------------------------------------------------
     1  C     c     0.421819    0.078170  -12.137809    0.000000
     2  O     c     0.327979    0.046141  -12.902992    0.000000
     3  O     c     0.263099    0.110048  -11.372683    0.000000
     4  O     c     0.674388    0.078237  -12.134331    0.000000
     5  O     c     0.709831    0.037349   -9.097059    0.000000
     6  C     c     0.962413    0.037491   -9.093519    0.000000
     7  O     c     0.121150    0.005801   -9.863081    0.000000
     8  O     c     0.055821    0.069612   -8.329110    0.000000
     9  Ca    c     0.838098    0.161625  -12.132659    0.000000
    10  Ca    c     0.916673    0.081163   -6.057499    0.000000
    11  Ca    c     0.671984    0.328292  -12.132662    0.000000
    12  C     c     0.795939    0.204158   -9.093508    0.000000
    13  O     c     0.700580    0.172468   -9.863081    0.000000
    14  O     c     0.638290    0.236278   -8.329089    0.000000
    15  O     c     0.048804    0.204016   -9.097056    0.000000
    16  C     c     0.255174    0.244837  -12.137815    0.000000
    17  O     c     0.350137    0.276715  -11.372677    0.000000
    18  O     c     0.002471    0.244904  -12.134354    0.000000
    19  O     c     0.413073    0.212809  -12.903003    0.000000
    20  Ca    c     0.454197    0.042886   -3.084618    0.000000
    21  O     c     0.080565    0.164053   -6.103824    0.000000
    22  C     c     0.331791    0.165301   -6.108047    0.000000
    23  O     c     0.495129    0.133058   -6.843237    0.000000
    24  O     c     0.418870    0.198527   -5.350626    0.000000
    25  O     c     0.994645    0.379475  -12.902998    0.000000
    26  C     c     0.088486    0.411503  -12.137815    0.000000
    27  O     c     0.929766    0.443382  -11.372686    0.000000
    28  O     c     0.341055    0.411571  -12.134341    0.000000
    29  Ca    c     0.213220    0.287228   -9.106892    0.000000
    30  Ca    c     0.378992    0.120561   -9.106910    0.000000
    31  C     c     0.921841    0.578170  -12.137805    0.000000
    32  O     c     0.016805    0.610048  -11.372670    0.000000
    33  O     c     0.079738    0.546142  -12.902994    0.000000
    34  O     c     0.669137    0.578237  -12.134335    0.000000
    35  Ca    c     0.338650    0.661625  -12.132654    0.000000
    36  Ca    c     0.504765    0.494959  -12.132662    0.000000
    37  C     c     0.629080    0.370824   -9.093523    0.000000
    38  O     c     0.722488    0.402945   -8.329114    0.000000
    39  O     c     0.376498    0.370682   -9.097065    0.000000
    40  O     c     0.787817    0.339134   -9.863086    0.000000
    41  Ca    c     0.293350    0.209550   -3.084640    0.000000
    42  Ca    c     0.045659    0.453895   -9.106913    0.000000
    43  C     c     0.870745    0.121977   -2.931929    0.000000
    44  O     c     0.811005    0.086676   -3.747103    0.000000
    45  O     c     0.117838    0.126173   -2.856539    0.000000
    46  O     c     0.675781    0.150716   -2.309754    0.000000
    47  C     c     0.170938    0.331968   -6.108044    0.000000
    48  O     c     0.072082    0.299725   -6.843219    0.000000
    49  O     c     0.017409    0.365194   -5.350632    0.000000
    50  O     c     0.424660    0.330719   -6.103850    0.000000
    51  O     c     0.463116    0.292837   -2.856544    0.000000
    52  C     c     0.718601    0.288647   -2.931911    0.000000
    53  O     c     0.848965    0.253345   -3.747006    0.000000
    54  O     c     0.856055    0.317394   -2.309773    0.000000
    55  O     c     0.367248    0.505802   -9.863081    0.000000
    56  C     c     0.462605    0.537491   -9.093507    0.000000
    57  O     c     0.304956    0.569612   -8.329090    0.000000
    58  O     c     0.715471    0.537349   -9.097052    0.000000
    59  Ca    c     0.583340    0.414496   -6.057503    0.000000
    60  Ca    c     0.754331    0.247830   -6.057461    0.000000
    61  Ca    c     0.171431    0.828292  -12.132663    0.000000
    62  Ca    c     0.712325    0.787228   -9.106914    0.000000
    63  C     c     0.755152    0.744836  -12.137821    0.000000
    64  O     c     0.661311    0.712808  -12.903002    0.000000
    65  O     c     0.007721    0.744904  -12.134351    0.000000
    66  O     c     0.596432    0.776715  -11.372690    0.000000
    67  C     c     0.295747    0.704158   -9.093520    0.000000
    68  O     c     0.389154    0.736279   -8.329109    0.000000
    69  O     c     0.454484    0.672468   -9.863081    0.000000
    70  O     c     0.043165    0.704016   -9.097065    0.000000
    71  O     c     0.335804    0.911571  -12.134340    0.000000
    72  C     c     0.588507    0.911503  -12.137810    0.000000
    73  O     c     0.746405    0.879475  -12.902996    0.000000
    74  O     c     0.683471    0.943381  -11.372673    0.000000
    75  Ca    c     0.879886    0.620561   -9.106889    0.000000
    76  Ca    c     0.420998    0.581163   -6.057461    0.000000
    77  C     c     0.537411    0.455310   -2.931927    0.000000
    78  O     c     0.477673    0.420009   -3.747106    0.000000
    79  O     c     0.342446    0.484049   -2.309753    0.000000
    80  O     c     0.784505    0.459506   -2.856533    0.000000
    81  O     c     0.738749    0.633058   -6.843216    0.000000
    82  C     c     0.837604    0.665301   -6.108041    0.000000
    83  O     c     0.684075    0.698528   -5.350628    0.000000
    84  O     c     0.091327    0.664053   -6.103846    0.000000
    85  Ca    c     0.960016    0.542883   -3.084640    0.000000
    86  C     c     0.998458    0.498634   -6.108048    0.000000
    87  O     c     0.085537    0.531860   -5.350626    0.000000
    88  O     c     0.747232    0.497386   -6.103826    0.000000
    89  O     c     0.161796    0.466392   -6.843239    0.000000
    90  Ca    c     0.120864    0.376220   -3.084616    0.000000
    91  Ca    c     0.546553    0.953895   -9.106892    0.000000
    92  C     c     0.665125    0.831968   -6.108046    0.000000
    93  O     c     0.752205    0.865193   -5.350626    0.000000
    94  O     c     0.828462    0.799725   -6.843239    0.000000
    95  O     c     0.413898    0.830720   -6.103817    0.000000
    96  Ca    c     0.787531    0.709553   -3.084614    0.000000
    97  Ca    c     0.087664    0.914497   -6.057460    0.000000
    98  C     c     0.129272    0.870824   -9.093507    0.000000
    99  O     c     0.033914    0.839135   -9.863081    0.000000
   100  O     c     0.382138    0.870682   -9.097052    0.000000
   101  O     c     0.971623    0.902945   -8.329088    0.000000
   102  Ca    c     0.005317    0.994959  -12.132660    0.000000
   103  Ca    c     0.250007    0.747830   -6.057498    0.000000
   104  C     c     0.385268    0.621980   -2.931908    0.000000
   105  O     c     0.522724    0.650727   -2.309770    0.000000
   106  O     c     0.129783    0.626171   -2.856538    0.000000
   107  O     c     0.515631    0.586678   -3.747005    0.000000
   108  O     c     0.144340    0.753342   -3.747099    0.000000
   109  C     c     0.204078    0.788643   -2.931924    0.000000
   110  O     c     0.009114    0.817382   -2.309754    0.000000
   111  O     c     0.451172    0.792839   -2.856530    0.000000
   112  C     c     0.504271    0.998635   -6.108043    0.000000
   113  O     c     0.405416    0.966392   -6.843217    0.000000
   114  O     c     0.757993    0.997386   -6.103844    0.000000
   115  O     c     0.350741    0.031861   -5.350633    0.000000
   116  C     c     0.051934    0.955314   -2.931913    0.000000
   117  O     c     0.189386    0.984061   -2.309778    0.000000
   118  O     c     0.182299    0.920012   -3.747002    0.000000
   119  O     c     0.796449    0.959504   -2.856547    0.000000
   120  Ca    c     0.626683    0.876216   -3.084643    0.000000
   121  Ca    c     0.843838    0.156161  -24.269321    0.000000
   122  C     c     0.427172    0.072828  -24.269320    0.000000
   123  O     c     0.521585    0.104741  -23.502851    0.000000
   124  O     c     0.585412    0.040914  -25.035786    0.000000
   125  O     c     0.174518    0.072828  -24.269320    0.000000
   126  O     c     0.873112    0.000561  -22.002121    0.000000
   127  C     c     0.967525    0.032474  -21.235655    0.000000
   128  O     c     0.809285    0.064388  -20.469187    0.000000
   129  O     c     0.220179    0.032474  -21.235655    0.000000
   130  Ca    c     0.677172    0.322828  -24.269320    0.000000
   131  C     c     0.800858    0.199141  -21.235655    0.000000
   132  O     c     0.895272    0.231055  -20.469187    0.000000
   133  O     c     0.959099    0.167228  -22.002121    0.000000
   134  O     c     0.548204    0.199141  -21.235655    0.000000
   135  Ca    c     0.924545    0.075454  -18.201990    0.000000
   136  Ca    c     0.217525    0.282475  -21.235657    0.000000
   137  C     c     0.260505    0.239495  -24.269321    0.000000
   138  O     c     0.166092    0.207581  -25.035788    0.000000
   139  O     c     0.513159    0.239495  -24.269321    0.000000
   140  O     c     0.102265    0.271408  -23.502853    0.000000
   141  O     c     0.841184    0.406161  -24.269320    0.000000
   142  C     c     0.093838    0.406161  -24.269320    0.000000
   143  O     c     0.252079    0.374248  -25.035788    0.000000
   144  O     c     0.188252    0.438075  -23.502853    0.000000
   145  Ca    c     0.384192    0.115808  -21.235655    0.000000
   146  O     c     0.246799    0.126874  -18.968456    0.000000
   147  C     c     0.341212    0.158788  -18.201990    0.000000
   148  O     c     0.182971    0.190701  -17.435522    0.000000
   149  O     c     0.593866    0.158788  -18.201990    0.000000
   150  Ca    c     0.464899    0.035101  -15.168324    0.000000
   151  C     c     0.927172    0.572828  -24.269320    0.000000
   152  O     c     0.832758    0.540914  -25.035786    0.000000
   153  O     c     0.768931    0.604742  -23.502851    0.000000
   154  O     c     0.179826    0.572828  -24.269320    0.000000
   155  Ca    c     0.050859    0.449141  -21.235653    0.000000
   156  Ca    c     0.591212    0.408788  -18.201988    0.000000
   157  C     c     0.634192    0.365808  -21.235653    0.000000
   158  O     c     0.539778    0.333894  -22.002121    0.000000
   159  O     c     0.886846    0.365808  -21.235653    0.000000
   160  O     c     0.475951    0.397721  -20.469185    0.000000
   161  C     c     0.174545    0.325454  -18.201988    0.000000
   162  O     c     0.268959    0.357368  -17.435520    0.000000
   163  O     c     0.332786    0.293541  -18.968456    0.000000
   164  O     c     0.921891    0.325454  -18.201988    0.000000
   165  O     c     0.214871    0.532474  -21.235653    0.000000
   166  C     c     0.467525    0.532474  -21.235653    0.000000
   167  O     c     0.625766    0.500561  -22.002121    0.000000
   168  O     c     0.561939    0.564388  -20.469185    0.000000
   169  Ca    c     0.343838    0.656161  -24.269318    0.000000
   170  Ca    c     0.510505    0.489495  -24.269320    0.000000
   171  Ca    c     0.757879    0.242121  -18.201990    0.000000
   172  C     c     0.881566    0.118434  -15.168325    0.000000
   173  O     c     0.975979    0.150348  -14.401857    0.000000
   174  O     c     0.628912    0.118434  -15.168325    0.000000
   175  O     c     0.039806    0.086521  -15.934793    0.000000
   176  Ca    c     0.298232    0.201768  -15.168325    0.000000
   177  O     c     0.620485    0.253187  -15.934793    0.000000
   178  C     c     0.714899    0.285101  -15.168325    0.000000
   179  O     c     0.556658    0.317014  -14.401857    0.000000
   180  O     c     0.967553    0.285101  -15.168325    0.000000
   181  C     c     0.760505    0.739495  -24.269320    0.000000
   182  O     c     0.854918    0.771408  -23.502851    0.000000
   183  O     c     0.507851    0.739495  -24.269320    0.000000
   184  O     c     0.918746    0.707581  -25.035786    0.000000
   185  Ca    c     0.424545    0.575454  -18.201988    0.000000
   186  Ca    c     0.964899    0.535101  -15.168324    0.000000
   187  Ca    c     0.177172    0.822828  -24.269320    0.000000
   188  C     c     0.300859    0.699141  -21.235655    0.000000
   189  O     c     0.206445    0.667228  -22.002121    0.000000
   190  O     c     0.142618    0.731055  -20.469187    0.000000
   191  O     c     0.553513    0.699141  -21.235655    0.000000
   192  C     c     0.548232    0.451767  -15.168324    0.000000
   193  O     c     0.642646    0.483681  -14.401855    0.000000
   194  O     c     0.706473    0.419854  -15.934791    0.000000
   195  O     c     0.295578    0.451767  -15.168324    0.000000
   196  O     c     0.588558    0.658788  -18.201988    0.000000
   197  C     c     0.841212    0.658788  -18.201988    0.000000
   198  O     c     0.999453    0.626874  -18.968456    0.000000
   199  O     c     0.935626    0.690701  -17.435520    0.000000
   200  O     c     0.499425    0.874248  -25.035786    0.000000
   201  C     c     0.593838    0.906161  -24.269320    0.000000
   202  O     c     0.435598    0.938075  -23.502851    0.000000
   203  O     c     0.846493    0.906161  -24.269320    0.000000
   204  Ca    c     0.717525    0.782474  -21.235653    0.000000
   205  Ca    c     0.884192    0.615808  -21.235655    0.000000
   206  C     c     0.007879    0.492121  -18.201988    0.000000
   207  O     c     0.913465    0.460207  -18.968456    0.000000
   208  O     c     0.260533    0.492121  -18.201988    0.000000
   209  O     c     0.849638    0.524035  -17.435520    0.000000
   210  Ca    c     0.131566    0.368434  -15.168324    0.000000
   211  Ca    c     0.798232    0.701767  -15.168324    0.000000
   212  Ca    c     0.550858    0.949141  -21.235655    0.000000
   213  C     c     0.674545    0.825454  -18.201990    0.000000
   214  O     c     0.580132    0.793541  -18.968456    0.000000
   215  O     c     0.516305    0.857368  -17.435522    0.000000
   216  O     c     0.927199    0.825454  -18.201990    0.000000
   217  Ca    c     0.010505    0.989495  -24.269320    0.000000
   218  C     c     0.134192    0.865808  -21.235655    0.000000
   219  O     c     0.228605    0.897721  -20.469187    0.000000
   220  O     c     0.881538    0.865808  -21.235655    0.000000
   221  O     c     0.292432    0.833894  -22.002121    0.000000
   222  C     c     0.381566    0.618434  -15.168324    0.000000
   223  O     c     0.287152    0.586521  -15.934792    0.000000
   224  O     c     0.634220    0.618434  -15.168324    0.000000
   225  O     c     0.223325    0.650348  -14.401856    0.000000
   226  O     c     0.962245    0.785101  -15.168324    0.000000
   227  C     c     0.214899    0.785101  -15.168324    0.000000
   228  O     c     0.373140    0.753187  -15.934792    0.000000
   229  O     c     0.309313    0.817014  -14.401856    0.000000
   230  Ca    c     0.091212    0.908788  -18.201988    0.000000
   231  Ca    c     0.257879    0.742121  -18.201990    0.000000
   232  C     c     0.507879    0.992121  -18.201990    0.000000
   233  O     c     0.602292    0.024035  -17.435522    0.000000
   234  O     c     0.255225    0.992121  -18.201990    0.000000
   235  O     c     0.666119    0.960207  -18.968456    0.000000
   236  C     c     0.048232    0.951768  -15.168325    0.000000
   237  O     c     0.953819    0.919854  -15.934793    0.000000
   238  O     c     0.889992    0.983681  -14.401857    0.000000
   239  O     c     0.300886    0.951768  -15.168325    0.000000
   240  Ca    c     0.631566    0.868434  -15.168325    0.000000
   241  O     s     0.327731    0.046069  -12.904372    0.000000
   242  O     s     0.262801    0.110099  -11.370342    0.000000
   243  O     s     0.674943    0.078227  -12.133824    0.000000
   244  O     s     0.709049    0.037395   -9.098357    0.000000
   245  O     s     0.121491    0.005745   -9.866205    0.000000
   246  O     s     0.056069    0.069719   -8.329246    0.000000
   247  O     s     0.700352    0.172412   -9.866207    0.000000
   248  O     s     0.637826    0.236386   -8.329228    0.000000
   249  O     s     0.049495    0.204061   -9.098355    0.000000
   250  O     s     0.350333    0.276765  -11.370338    0.000000
   251  O     s     0.001935    0.244894  -12.133848    0.000000
   252  O     s     0.413466    0.212736  -12.904385    0.000000
   253  O     s     0.080304    0.164097   -6.097854    0.000000
   254  O     s     0.495366    0.132919   -6.841606    0.000000
   255  O     s     0.418830    0.198467   -5.343477    0.000000
   256  O     s     0.994397    0.379402  -12.904379    0.000000
   257  O     s     0.929468    0.443432  -11.370344    0.000000
   258  O     s     0.341610    0.411561  -12.133835    0.000000
   259  O     s     0.017001    0.610098  -11.370331    0.000000
   260  O     s     0.080131    0.546069  -12.904375    0.000000
   261  O     s     0.668602    0.578227  -12.133829    0.000000
   262  O     s     0.722737    0.403052   -8.329250    0.000000
   263  O     s     0.375716    0.370728   -9.098363    0.000000
   264  O     s     0.788158    0.339078   -9.866211    0.000000
   265  O     s     0.807258    0.086812   -3.757707    0.000000
   266  O     s     0.120872    0.125506   -2.884087    0.000000
   267  O     s     0.671106    0.150477   -2.362374    0.000000
   268  O     s     0.072124    0.299586   -6.841587    0.000000
   269  O     s     0.017568    0.365134   -5.343487    0.000000
   270  O     s     0.424832    0.330763   -6.097883    0.000000
   271  O     s     0.461417    0.292170   -2.884087    0.000000
   272  O     s     0.852438    0.253481   -3.757615    0.000000
   273  O     s     0.861209    0.317155   -2.362384    0.000000
   274  O     s     0.367019    0.505746   -9.866206    0.000000
   275  O     s     0.304493    0.569719   -8.329227    0.000000
   276  O     s     0.716162    0.537395   -9.098351    0.000000
   277  O     s     0.661063    0.712735  -12.904384    0.000000
   278  O     s     0.008276    0.744894  -12.133844    0.000000
   279  O     s     0.596135    0.776765  -11.370348    0.000000
   280  O     s     0.389402    0.736386   -8.329245    0.000000
   281  O     s     0.454825    0.672412   -9.866206    0.000000
   282  O     s     0.042383    0.704061   -9.098364    0.000000
   283  O     s     0.335268    0.911561  -12.133834    0.000000
   284  O     s     0.746798    0.879403  -12.904376    0.000000
   285  O     s     0.683668    0.943432  -11.370333    0.000000
   286  O     s     0.473926    0.420145   -3.757709    0.000000
   287  O     s     0.337771    0.483809   -2.362373    0.000000
   288  O     s     0.787538    0.458839   -2.884081    0.000000
   289  O     s     0.738790    0.632919   -6.841585    0.000000
   290  O     s     0.684234    0.698468   -5.343483    0.000000
   291  O     s     0.091499    0.664097   -6.097879    0.000000
   292  O     s     0.085496    0.531800   -5.343477    0.000000
   293  O     s     0.746971    0.497431   -6.097856    0.000000
   294  O     s     0.162033    0.466253   -6.841608    0.000000
   295  O     s     0.752164    0.865133   -5.343477    0.000000
   296  O     s     0.828699    0.799586   -6.841607    0.000000
   297  O     s     0.413638    0.830764   -6.097847    0.000000
   298  O     s     0.033686    0.839079   -9.866207    0.000000
   299  O     s     0.382829    0.870728   -9.098352    0.000000
   300  O     s     0.971159    0.903052   -8.329226    0.000000
   301  O     s     0.527877    0.650488   -2.362381    0.000000
   302  O     s     0.128083    0.625503   -2.884081    0.000000
   303  O     s     0.519104    0.586814   -3.757614    0.000000
   304  O     s     0.140593    0.753478   -3.757702    0.000000
   305  O     s     0.004439    0.817143   -2.362374    0.000000
   306  O     s     0.454206    0.792172   -2.884079    0.000000
   307  O     s     0.405458    0.966252   -6.841585    0.000000
   308  O     s     0.758166    0.997430   -6.097877    0.000000
   309  O     s     0.350901    0.031801   -5.343488    0.000000
   310  O     s     0.194540    0.983822   -2.362388    0.000000
   311  O     s     0.185772    0.920148   -3.757612    0.000000
   312  O     s     0.794750    0.958836   -2.884089    0.000000
   313  O     s     0.521803    0.104815  -23.501081    0.000000
   314  O     s     0.585778    0.040841  -25.037558    0.000000
   315  O     s     0.173934    0.072828  -24.269318    0.000000
   316  O     s     0.872894    0.000487  -22.003893    0.000000
   317  O     s     0.808919    0.064462  -20.467417    0.000000
   318  O     s     0.220763    0.032474  -21.235655    0.000000
   319  O     s     0.895490    0.231128  -20.467417    0.000000
   320  O     s     0.959465    0.167154  -22.003893    0.000000
   321  O     s     0.547621    0.199141  -21.235653    0.000000
   322  O     s     0.165873    0.207507  -25.037558    0.000000
   323  O     s     0.513743    0.239495  -24.269321    0.000000
   324  O     s     0.101899    0.271482  -23.501083    0.000000
   325  O     s     0.840601    0.406161  -24.269320    0.000000
   326  O     s     0.252444    0.374174  -25.037558    0.000000
   327  O     s     0.188470    0.438149  -23.501083    0.000000
   328  O     s     0.246581    0.126800  -18.970228    0.000000
   329  O     s     0.182606    0.190775  -17.433752    0.000000
   330  O     s     0.594450    0.158788  -18.201990    0.000000
   331  O     s     0.832540    0.540841  -25.037558    0.000000
   332  O     s     0.768566    0.604815  -23.501081    0.000000
   333  O     s     0.180409    0.572828  -24.269320    0.000000
   334  O     s     0.539560    0.333821  -22.003891    0.000000
   335  O     s     0.887429    0.365808  -21.235653    0.000000
   336  O     s     0.475586    0.397795  -20.467415    0.000000
   337  O     s     0.269177    0.357442  -17.433750    0.000000
   338  O     s     0.333151    0.293467  -18.970226    0.000000
   339  O     s     0.921308    0.325454  -18.201988    0.000000
   340  O     s     0.214288    0.532474  -21.235653    0.000000
   341  O     s     0.626131    0.500487  -22.003891    0.000000
   342  O     s     0.562157    0.564462  -20.467415    0.000000
   343  O     s     0.976197    0.150421  -14.400087    0.000000
   344  O     s     0.628328    0.118434  -15.168325    0.000000
   345  O     s     0.040172    0.086447  -15.936563    0.000000
   346  O     s     0.620267    0.253114  -15.936563    0.000000
   347  O     s     0.556293    0.317088  -14.400087    0.000000
   348  O     s     0.968136    0.285101  -15.168325    0.000000
[...]
    133 O     c       0.000000      0.000000      0.000000      0.000000
    134 O     c       0.000000      0.000000      0.000000      0.000000
    135 Ca    c       0.000000      0.000000      0.000000      0.000000
    136 Ca    c       0.000000      0.000000      0.000000      0.000000
    137 C     c       0.000000      0.000000      0.000000      0.000000
    138 O     c       0.000000      0.000000      0.000000      0.000000
    139 O     c       0.000000      0.000000      0.000000      0.000000
    140 O     c       0.000000      0.000000      0.000000      0.000000
    141 O     c       0.000000      0.000000      0.000000      0.000000
    142 C     c       0.000000      0.000000      0.000000      0.000000
    143 O     c       0.000000      0.000000      0.000000      0.000000
    144 O     c       0.000000      0.000000      0.000000      0.000000
    145 Ca    c       0.000000      0.000000      0.000000      0.000000
    146 O     c       0.000000      0.000000      0.000000      0.000000
    147 C     c       0.000000      0.000000      0.000000      0.000000
    148 O     c       0.000000      0.000000      0.000000      0.000000
    149 O     c       0.000000      0.000000      0.000000      0.000000
    150 Ca    c       0.000000      0.000000      0.000000      0.000000
    151 C     c       0.000000      0.000000      0.000000      0.000000
    152 O     c       0.000000      0.000000      0.000000      0.000000
    153 O     c       0.000000      0.000000      0.000000      0.000000
    154 O     c       0.000000      0.000000      0.000000      0.000000
    155 Ca    c       0.000000      0.000000      0.000000      0.000000
    156 Ca    c       0.000000      0.000000      0.000000      0.000000
    157 C     c       0.000000      0.000000      0.000000      0.000000
    158 O     c       0.000000      0.000000      0.000000      0.000000
    159 O     c       0.000000      0.000000      0.000000      0.000000
    160 O     c       0.000000      0.000000      0.000000      0.000000
    161 C     c       0.000000      0.000000      0.000000      0.000000
    162 O     c       0.000000      0.000000      0.000000      0.000000
    163 O     c       0.000000      0.000000      0.000000      0.000000
    164 O     c       0.000000      0.000000      0.000000      0.000000
    165 O     c       0.000000      0.000000      0.000000      0.000000
    166 C     c       0.000000      0.000000      0.000000      0.000000
    167 O     c       0.000000      0.000000      0.000000      0.000000
    168 O     c       0.000000      0.000000      0.000000      0.000000
    169 Ca    c       0.000000      0.000000      0.000000      0.000000
    170 Ca    c       0.000000      0.000000      0.000000      0.000000
    171 Ca    c       0.000000      0.000000      0.000000      0.000000
    172 C     c       0.000000      0.000000      0.000000      0.000000
    173 O     c       0.000000      0.000000      0.000000      0.000000
    174 O     c       0.000000      0.000000      0.000000      0.000000
    175 O     c       0.000000      0.000000      0.000000      0.000000
    176 Ca    c       0.000000      0.000000      0.000000      0.000000
    177 O     c       0.000000      0.000000      0.000000      0.000000
    178 C     c       0.000000      0.000000      0.000000      0.000000
    179 O     c       0.000000      0.000000      0.000000      0.000000
    180 O     c       0.000000      0.000000      0.000000      0.000000
    181 C     c       0.000000      0.000000      0.000000      0.000000
    182 O     c       0.000000      0.000000      0.000000      0.000000
    183 O     c       0.000000      0.000000      0.000000      0.000000
    184 O     c       0.000000      0.000000      0.000000      0.000000
    185 Ca    c       0.000000      0.000000      0.000000      0.000000
    186 Ca    c       0.000000      0.000000      0.000000      0.000000
    187 Ca    c       0.000000      0.000000      0.000000      0.000000
    188 C     c       0.000000      0.000000      0.000000      0.000000
    189 O     c       0.000000      0.000000      0.000000      0.000000
    190 O     c       0.000000      0.000000      0.000000      0.000000
    191 O     c       0.000000      0.000000      0.000000      0.000000
    192 C     c       0.000000      0.000000      0.000000      0.000000
    193 O     c       0.000000      0.000000      0.000000      0.000000
    194 O     c       0.000000      0.000000      0.000000      0.000000
    195 O     c       0.000000      0.000000      0.000000      0.000000
    196 O     c       0.000000      0.000000      0.000000      0.000000
    197 C     c       0.000000      0.000000      0.000000      0.000000
    198 O     c       0.000000      0.000000      0.000000      0.000000
    199 O     c       0.000000      0.000000      0.000000      0.000000
    200 O     c       0.000000      0.000000      0.000000      0.000000
    201 C     c       0.000000      0.000000      0.000000      0.000000
    202 O     c       0.000000      0.000000      0.000000      0.000000
    203 O     c       0.000000      0.000000      0.000000      0.000000
    204 Ca    c       0.000000      0.000000      0.000000      0.000000
    205 Ca    c       0.000000      0.000000      0.000000      0.000000
    206 C     c       0.000000      0.000000      0.000000      0.000000
    207 O     c       0.000000      0.000000      0.000000      0.000000
    208 O     c       0.000000      0.000000      0.000000      0.000000
    209 O     c       0.000000      0.000000      0.000000      0.000000
    210 Ca    c       0.000000      0.000000      0.000000      0.000000
    211 Ca    c       0.000000      0.000000      0.000000      0.000000
    212 Ca    c       0.000000      0.000000      0.000000      0.000000
    213 C     c       0.000000      0.000000      0.000000      0.000000
    214 O     c       0.000000      0.000000      0.000000      0.000000
    215 O     c       0.000000      0.000000      0.000000      0.000000
    216 O     c       0.000000      0.000000      0.000000      0.000000
    217 Ca    c       0.000000      0.000000      0.000000      0.000000
    218 C     c       0.000000      0.000000      0.000000      0.000000
    219 O     c       0.000000      0.000000      0.000000      0.000000
    220 O     c       0.000000      0.000000      0.000000      0.000000
    221 O     c       0.000000      0.000000      0.000000      0.000000
    222 C     c       0.000000      0.000000      0.000000      0.000000
    223 O     c       0.000000      0.000000      0.000000      0.000000
    224 O     c       0.000000      0.000000      0.000000      0.000000
    225 O     c       0.000000      0.000000      0.000000      0.000000
    226 O     c       0.000000      0.000000      0.000000      0.000000
    227 C     c       0.000000      0.000000      0.000000      0.000000
    228 O     c       0.000000      0.000000      0.000000      0.000000
    229 O     c       0.000000      0.000000      0.000000      0.000000
    230 Ca    c       0.000000      0.000000      0.000000      0.000000
    231 Ca    c       0.000000      0.000000      0.000000      0.000000
    232 C     c       0.000000      0.000000      0.000000      0.000000
    233 O     c       0.000000      0.000000      0.000000      0.000000
    234 O     c       0.000000      0.000000      0.000000      0.000000
    235 O     c       0.000000      0.000000      0.000000      0.000000
    236 C     c       0.000000      0.000000      0.000000      0.000000
    237 O     c       0.000000      0.000000      0.000000      0.000000
    238 O     c       0.000000      0.000000      0.000000      0.000000
    239 O     c       0.000000      0.000000      0.000000      0.000000
    240 Ca    c       0.000000      0.000000      0.000000      0.000000
    241 O     s      -0.000006      0.000223     -0.000005      0.000000
    242 O     s       0.000020     -0.000066     -0.000007      0.000000
    243 O     s       0.000006      0.000042     -0.000005      0.000000
    244 O     s      -0.000008      0.000031     -0.000001      0.000000
    245 O     s      -0.000015      0.000130      0.000000      0.000000
    246 O     s      -0.000003     -0.000527     -0.000018      0.000000
    247 O     s       0.000046      0.000012     -0.000004      0.000000
    248 O     s       0.000005     -0.000030     -0.000026      0.000000
    249 O     s      -0.000055     -0.000133      0.000004      0.000000
    250 O     s      -0.000026      0.000018     -0.000007      0.000000
    251 O     s       0.000017     -0.000012     -0.000008      0.000000
    252 O     s       0.000016      0.000003     -0.000004      0.000000
    253 O     s       0.000090     -0.000342     -0.000011      0.000000
    254 O     s      -0.000111      0.000308     -0.000000      0.000000
    255 O     s      -0.000016      0.000142     -0.000025      0.000000
    256 O     s      -0.000006      0.000219     -0.000005      0.000000
    257 O     s       0.000020     -0.000066     -0.000007      0.000000
    258 O     s       0.000006      0.000041     -0.000005      0.000000
    259 O     s      -0.000026      0.000020     -0.000008      0.000000
    260 O     s       0.000016      0.000002     -0.000004      0.000000
    261 O     s       0.000017     -0.000012     -0.000008      0.000000
    262 O     s      -0.000002     -0.000524     -0.000017      0.000000
    263 O     s      -0.000007      0.000023     -0.000001      0.000000
    264 O     s      -0.000016      0.000121      0.000000      0.000000
    265 O     s       0.000290      0.001718      0.000036      0.000000
    266 O     s      -0.000202      0.000967      0.000030      0.000000
    267 O     s       0.000419     -0.001185      0.000005      0.000000
    268 O     s       0.000065      0.000680      0.000002      0.000000
    269 O     s       0.000169     -0.000211     -0.000034      0.000000
    270 O     s      -0.000159     -0.000760     -0.000003      0.000000
    271 O     s      -0.000007      0.000060      0.000011      0.000000
    272 O     s      -0.000134      0.000783      0.000022      0.000000
    273 O     s      -0.000309     -0.000198      0.000023      0.000000
    274 O     s       0.000046      0.000014     -0.000004      0.000000
    275 O     s       0.000006     -0.000029     -0.000026      0.000000
    276 O     s      -0.000056     -0.000132      0.000003      0.000000
    277 O     s      -0.000005      0.000223     -0.000005      0.000000
    278 O     s       0.000006      0.000044     -0.000005      0.000000
    279 O     s       0.000020     -0.000061     -0.000007      0.000000
    280 O     s      -0.000004     -0.000531     -0.000018      0.000000
    281 O     s      -0.000015      0.000132     -0.000000      0.000000
    282 O     s      -0.000007      0.000032     -0.000002      0.000000
    283 O     s       0.000017     -0.000009     -0.000008      0.000000
    284 O     s       0.000016      0.000005     -0.000004      0.000000
    285 O     s      -0.000025      0.000025     -0.000007      0.000000
    286 O     s       0.000260      0.001468      0.000035      0.000000
    287 O     s       0.000361     -0.000901      0.000008      0.000000
    288 O     s      -0.000145      0.000876      0.000029      0.000000
    289 O     s       0.000067      0.000684      0.000002      0.000000
    290 O     s       0.000176     -0.000209     -0.000037      0.000000
    291 O     s      -0.000172     -0.000785     -0.000002      0.000000
    292 O     s      -0.000015      0.000164     -0.000025      0.000000
    293 O     s       0.000091     -0.000366     -0.000011      0.000000
    294 O     s      -0.000113      0.000272     -0.000000      0.000000
    295 O     s      -0.000026      0.000089     -0.000028      0.000000
    296 O     s      -0.000115      0.000340      0.000000      0.000000
    297 O     s       0.000113     -0.000302     -0.000009      0.000000
    298 O     s       0.000045      0.000029     -0.000004      0.000000
    299 O     s      -0.000055     -0.000114      0.000004      0.000000
    300 O     s       0.000007     -0.000026     -0.000026      0.000000
    301 O     s      -0.000277      0.000008      0.000026      0.000000
    302 O     s      -0.000044     -0.000112      0.000012      0.000000
    303 O     s      -0.000112      0.000679      0.000021      0.000000
    304 O     s       0.000265      0.001494      0.000035      0.000000
    305 O     s       0.000396     -0.001104      0.000007      0.000000
    306 O     s      -0.000173      0.000850      0.000030      0.000000
    307 O     s       0.000065      0.000750      0.000003      0.000000
    308 O     s      -0.000173     -0.000751     -0.000000      0.000000
    309 O     s       0.000179     -0.000290     -0.000035      0.000000
    310 O     s      -0.000374     -0.000688      0.000020      0.000000
    311 O     s      -0.000155      0.000897      0.000023      0.000000
    312 O     s       0.000052      0.000219      0.000013      0.000000
    313 O     s       0.000000      0.000000      0.000000      0.000000
    314 O     s       0.000000      0.000000      0.000000      0.000000
    315 O     s       0.000000      0.000000      0.000000      0.000000
    316 O     s       0.000000      0.000000      0.000000      0.000000
    317 O     s       0.000000      0.000000      0.000000      0.000000
    318 O     s       0.000000      0.000000      0.000000      0.000000
    319 O     s       0.000000      0.000000      0.000000      0.000000
    320 O     s       0.000000      0.000000      0.000000      0.000000
    321 O     s       0.000000      0.000000      0.000000      0.000000
    322 O     s       0.000000      0.000000      0.000000      0.000000
    323 O     s       0.000000      0.000000      0.000000      0.000000
    324 O     s       0.000000      0.000000      0.000000      0.000000
    325 O     s       0.000000      0.000000      0.000000      0.000000
    326 O     s       0.000000      0.000000      0.000000      0.000000
    327 O     s       0.000000      0.000000      0.000000      0.000000
    328 O     s       0.000000      0.000000      0.000000      0.000000
    329 O     s       0.000000      0.000000      0.000000      0.000000
    330 O     s       0.000000      0.000000      0.000000      0.000000
    331 O     s       0.000000      0.000000      0.000000      0.000000
    332 O     s       0.000000      0.000000      0.000000      0.000000
    333 O     s       0.000000      0.000000      0.000000      0.000000
    334 O     s       0.000000      0.000000      0.000000      0.000000
    335 O     s       0.000000      0.000000      0.000000      0.000000
    336 O     s       0.000000      0.000000      0.000000      0.000000
    337 O     s       0.000000      0.000000      0.000000      0.000000
    338 O     s       0.000000      0.000000      0.000000      0.000000
    339 O     s       0.000000      0.000000      0.000000      0.000000
    340 O     s       0.000000      0.000000      0.000000      0.000000
    341 O     s       0.000000      0.000000      0.000000      0.000000
    342 O     s       0.000000      0.000000      0.000000      0.000000
    343 O     s       0.000000      0.000000      0.000000      0.000000
    344 O     s       0.000000      0.000000      0.000000      0.000000
    345 O     s       0.000000      0.000000      0.000000      0.000000
    346 O     s       0.000000      0.000000      0.000000      0.000000
    347 O     s       0.000000      0.000000      0.000000      0.000000
    348 O     s       0.000000      0.000000      0.000000      0.000000
    349 O     s       0.000000      0.000000      0.000000      0.000000
    350 O     s       0.000000      0.000000      0.000000      0.000000
    351 O     s       0.000000      0.000000      0.000000      0.000000
    352 O     s       0.000000      0.000000      0.000000      0.000000
    353 O     s       0.000000      0.000000      0.000000      0.000000
    354 O     s       0.000000      0.000000      0.000000      0.000000
    355 O     s       0.000000      0.000000      0.000000      0.000000
    356 O     s       0.000000      0.000000      0.000000      0.000000
    357 O     s       0.000000      0.000000      0.000000      0.000000
    358 O     s       0.000000      0.000000      0.000000      0.000000
    359 O     s       0.000000      0.000000      0.000000      0.000000
    360 O     s       0.000000      0.000000      0.000000      0.000000
    361 O     s       0.000000      0.000000      0.000000      0.000000
    362 O     s       0.000000      0.000000      0.000000      0.000000
    363 O     s       0.000000      0.000000      0.000000      0.000000
    364 O     s       0.000000      0.000000      0.000000      0.000000
    365 O     s       0.000000      0.000000      0.000000      0.000000
    366 O     s       0.000000      0.000000      0.000000      0.000000
    367 O     s       0.000000      0.000000      0.000000      0.000000
    368 O     s       0.000000      0.000000      0.000000      0.000000
    369 O     s       0.000000      0.000000      0.000000      0.000000
    370 O     s       0.000000      0.000000      0.000000      0.000000
    371 O     s       0.000000      0.000000      0.000000      0.000000
    372 O     s       0.000000      0.000000      0.000000      0.000000
    373 O     s       0.000000      0.000000      0.000000      0.000000
    374 O     s       0.000000      0.000000      0.000000      0.000000
    375 O     s       0.000000      0.000000      0.000000      0.000000
    376 O     s       0.000000      0.000000      0.000000      0.000000
    377 O     s       0.000000      0.000000      0.000000      0.000000
    378 O     s       0.000000      0.000000      0.000000      0.000000
    379 O     s       0.000000      0.000000      0.000000      0.000000
    380 O     s       0.000000      0.000000      0.000000      0.000000
    381 O     s       0.000000      0.000000      0.000000      0.000000
    382 O     s       0.000000      0.000000      0.000000      0.000000
    383 O     s       0.000000      0.000000      0.000000      0.000000
    384 O     s       0.000000      0.000000      0.000000      0.000000
--------------------------------------------------------------------------------
  Maximum abs         0.001909      0.006183      0.000279      0.000000
--------------------------------------------------------------------------------


  Time to end of optimisation =      91.2105 seconds


  Peak dynamic memory used =       8.55 MB 


  Timing analysis for GULP :

--------------------------------------------------------------------------------
  Task / Subroutine                                          Time (Seconds)
--------------------------------------------------------------------------------
  Calculation of reciprocal space energy and derivatives         23.4214
  Calculation of real space energy and derivatives               48.9716
  Calculation of three-body energy and derivatives                0.0592
  Calculation of four-body energy and derivatives                 0.0906
  Calculation of molecules and connectivity                       0.0342
  Calculation of matrix inversion                                 0.2931
  Global summation overhead                                       0.0008
--------------------------------------------------------------------------------
  Total CPU time                                                 91.2107
--------------------------------------------------------------------------------


  Dump file written as calcite_104_0.0000.res                                  



  **** GULP has completed with   2 warnings - beware! ****

  Job Finished at 11:09.36 24th February   2015                               

