********************************************************************************
*                       GENERAL UTILITY LATTICE PROGRAM                        *
*                                 Julian Gale                                  *
*                      Nanochemistry Research Institute                        *
*                           Department of Chemistry                            *
*                    Curtin University, Western Australia                      *
********************************************************************************
* Version = 4.3.0 * Last modified =  14th June 2014                            *
********************************************************************************
*  optimise     - perform optimisation run                                     *
*  conp         - constant pressure calculation                                *
*  property     - calculate properties for final geometry                      *
*  phonon       - calculate phonons for final geometry                         *
*  compare      - compare initial and final structures                         *
********************************************************************************

  Job Started  at 10:15.51 23rd February   2015                               

  Number of CPUs =     1


  Total number of configurations input =   2

********************************************************************************
*  Input for Configuration =   1 : chabazite                                   *
********************************************************************************

  Formula = Si12O24                                                     

  Number of irreducible atoms/shells =       9


  Total number atoms/shells =      60

  Dimensionality = 3               :  Bulk   


  Symmetry :

  Crystal family                   :  Hexagonal   
  Crystal class  (Groth - 1921)    :  Ditrigonal Scalenohedral             

  Space group (centrosymmetric)    :  R -3 M          

  Patterson group                  :  R -3 m   

  Cartesian lattice vectors (Angstroms) :

        6.901286    3.984460    5.025094
       -6.901286    3.984460    5.025094
        0.000000   -7.968919    5.025094

  Cell parameters (Angstroms/Degrees):

  a =       9.4210    alpha =  94.2000
  b =       9.4210    beta  =  94.2000
  c =       9.4210    gamma =  94.2000

  Initial cell volume =         829.077085 Angs**3

  Temperature of configuration =  0.000     K 

  Pressure of configuration =         0.000 GPa 

  Fractional coordinates of asymmetric unit :

--------------------------------------------------------------------------------
   No.  Atomic       x           y          z         Charge      Occupancy
        Label      (Frac)      (Frac)     (Frac)        (e)         (Frac)  
--------------------------------------------------------------------------------
      1 Si    c    0.102192 *  0.331083 *  0.876169 *   4.00000    1.000000    
      2 O1    c    0.261344 *  0.738656    0.000000     0.86902    1.000000    
      3 O2    c    0.141729 *  0.858271    0.500000     0.86902    1.000000    
      4 O3    c    0.246729 *  0.246729    0.890290 *   0.86902    1.000000    
      5 O4    c    0.018968 *  0.018968    0.314454 *   0.86902    1.000000    
      6 O1    s    0.254283 *  0.745717    0.000000    -2.86902    1.000000    
      7 O2    s    0.135829 *  0.864171    0.500000    -2.86902    1.000000    
      8 O3    s    0.240510 *  0.240510    0.887279 *  -2.86902    1.000000    
      9 O4    s    0.012617 *  0.012617    0.318045 *  -2.86902    1.000000    
--------------------------------------------------------------------------------


  Constraints : 

--------------------------------------------------------------------------------
  Constraint no.      Unconstrained     Constrained    Coefficient    Offset
                         Variable         Variable
--------------------------------------------------------------------------------
           1              Strain 1        Strain 2       1.00000      0.0000
           2                 4 x             4 y         2.00000     -1.0000
           3                 5 x             5 y         2.00000     -1.0000
           4                 8 x             8 y         2.00000     -1.0000
           5                 9 x             9 y         2.00000     -1.0000
--------------------------------------------------------------------------------


********************************************************************************
*  Input for Configuration =   2 : quartz                                      *
********************************************************************************

  Formula = Si3O6                                                       

  Number of irreducible atoms/shells =       3


  Total number atoms/shells =      15

  Dimensionality = 3               :  Bulk   


  Symmetry :

  Crystal family                   :  Hexagonal   
  Crystal class  (Groth - 1921)    :  Trigonal Trapezohedral               

  Space group (noncentrosymmetric) :  P 31 2 1        

  Patterson group                  :  P -3 m 1 

  Cartesian lattice vectors (Angstroms) :

        4.914730    0.000000    0.000000
       -2.457365    4.256281    0.000000
        0.000000    0.000000    5.406570

  Cell parameters (Angstroms/Degrees):

  a =       4.9147    alpha =  90.0000
  b =       4.9147    beta  =  90.0000
  c =       5.4066    gamma = 120.0000

  Initial cell volume =         113.097184 Angs**3

  Temperature of configuration =  0.000     K 

  Pressure of configuration =         0.000 GPa 

  Fractional coordinates of asymmetric unit :

--------------------------------------------------------------------------------
   No.  Atomic       x           y          z         Charge      Occupancy
        Label      (Frac)      (Frac)     (Frac)        (e)         (Frac)  
--------------------------------------------------------------------------------
      1 Si    c    0.468200 *  0.000000    0.333333     4.00000    1.000000    
      2 O     c    0.413100 *  0.266100 *  0.213100 *   0.86902    1.000000    
      3 O     s    0.431522 *  0.266445 *  0.204492 *  -2.86902    1.000000    
--------------------------------------------------------------------------------


  Constraints : 

--------------------------------------------------------------------------------
  Constraint no.      Unconstrained     Constrained    Coefficient    Offset
                         Variable         Variable
--------------------------------------------------------------------------------
           1              Strain 1        Strain 2       1.00000      0.0000
--------------------------------------------------------------------------------


********************************************************************************
*  General input information                                                   *
********************************************************************************

  Species output for all configurations : 

--------------------------------------------------------------------------------
  Species    Type    Atomic    Atomic    Charge       Radii (Angs)     Library
                     Number     Mass       (e)     Cova   Ionic  VDW   Symbol
--------------------------------------------------------------------------------
    Si       Core       14      28.09   4.000000   1.200  0.000  2.100          
    O        Core        8      16.00   0.869020   0.730  0.000  1.360          
    O        Shell       8       0.00  -2.869020   0.730  0.000  1.360          
--------------------------------------------------------------------------------


  Lattice summation method               =    Ewald          (3-D)
                                         =    Parry          (2-D)
                                         =    Saunders et al (1-D)
  Accuracy factor for lattice sums       =   12.000


  Time limit = Infinity

  Maximum range for interatomic potentials =    100000.000000 Angstroms

  General interatomic potentials :

--------------------------------------------------------------------------------
Atom  Types   Potential         A         B         C         D     Cutoffs(Ang)
  1     2                                                            Min    Max 
--------------------------------------------------------------------------------
Si   c O    s Buckingham    0.128E+04 0.321      10.7      0.00     0.000 12.000
O    s O    s Buckingham    0.228E+05 0.149      27.9      0.00     0.000 12.000
O    c O    s Spring (c-s)   74.9      0.00      0.00      0.00     0.000  0.800
--------------------------------------------------------------------------------

  General Three-body potentials :

  Harmonic form:

--------------------------------------------------------------------------------
Atom    Atom    Atom           Force Constants            Theta     Cutoffs  
  1       2       3     (eVrad**-2/eVrad**-3/eVrad**-4)   (deg)  1-2  1-3  2-3
--------------------------------------------------------------------------------
Si    c O     s O     s  2.097        0.0000    0.0000   109.470 0.00 0.00 0.00
                                                                 2.20 2.20 3.80
--------------------------------------------------------------------------------

********************************************************************************
*  Output for configuration   1 : chabazite                                    *
********************************************************************************


  Components of energy : 

--------------------------------------------------------------------------------
  Interatomic potentials     =         382.05713877 eV
  Three-body potentials      =           0.37924670 eV
  Monopole - monopole (real) =       -1046.63724914 eV
  Monopole - monopole (recip)=        -878.41977365 eV
  Monopole - monopole (total)=       -1925.05702278 eV
--------------------------------------------------------------------------------
  Total lattice energy : 
    Primitive unit cell      =       -1542.62063731 eV
    Non-primitive unit cell  =       -4627.86191192 eV
--------------------------------------------------------------------------------
  Total lattice energy (in kJmol-1): 
    Primitive unit cell      =         -148839.3104 kJ/(mole unit cells)
    Non-primitive unit cell  =         -446517.9312 kJ/(mole unit cells)
--------------------------------------------------------------------------------


  Number of variables =       17

  Maximum number of calculations  =          1000
  Maximum Hessian update interval =            10
  Maximum step size               =   1.000000000
  Maximum parameter tolerance     =   0.000010000
  Maximum function  tolerance     =   0.000010000
  Maximum gradient  tolerance     =   0.001000000
  Maximum gradient  component     =   0.010000000

  Symmetry constrained optimisation

  Symmetry used for second derivatives

  Cell parameters to be optimised using strains

  Newton-Raphson optimiser to be used

  BFGS hessian update to be used

  Start of bulk optimisation :

  Cycle:      0 Energy:     -1542.620637  Gnorm:      4.025446  CPU:    0.023
  ** Hessian calculated **
  Cycle:      1 Energy:     -1543.774684  Gnorm:      0.865123  CPU:    0.040
  Cycle:      2 Energy:     -1543.785521  Gnorm:      0.712113  CPU:    0.055
  Cycle:      3 Energy:     -1543.789578  Gnorm:      0.214902  CPU:    0.073
  Cycle:      4 Energy:     -1543.789736  Gnorm:      0.045882  CPU:    0.092
  Cycle:      5 Energy:     -1543.789789  Gnorm:      0.027552  CPU:    0.107
  Cycle:      6 Energy:     -1543.789791  Gnorm:      0.001993  CPU:    0.121


  **** Optimisation achieved ****


  Final energy =   -1543.78979078 eV
  Final Gnorm  =       0.00016605

  Components of energy : 

--------------------------------------------------------------------------------
  Interatomic potentials     =         420.74939145 eV
  Three-body potentials      =           0.18648185 eV
  Monopole - monopole (real) =       -1063.16774882 eV
  Monopole - monopole (recip)=        -901.55791527 eV
  Monopole - monopole (total)=       -1964.72566409 eV
--------------------------------------------------------------------------------
  Total lattice energy : 
    Primitive unit cell      =       -1543.78979078 eV
    Non-primitive unit cell  =       -4631.36937235 eV
--------------------------------------------------------------------------------
  Total lattice energy (in kJmol-1): 
    Primitive unit cell      =         -148952.1158 kJ/(mole unit cells)
    Non-primitive unit cell  =         -446856.3475 kJ/(mole unit cells)
--------------------------------------------------------------------------------

  Final asymmetric unit coordinates :

--------------------------------------------------------------------------------
   No.  Atomic        x           y           z         Radius
        Label       (Frac)      (Frac)      (Frac)       (Angs) 
--------------------------------------------------------------------------------
     1  Si    c     0.106412    0.333416    0.878494    0.000000
     2  O1    c     0.259468    0.740532    0.000000    0.000000
     3  O2    c     0.150466    0.849534    0.500000    0.000000
     4  O3    c     0.254371    0.254371    0.897416    0.000000
     5  O4    c     0.027138    0.027138    0.323371    0.000000
     6  O1    s     0.252238    0.747762    0.000000    0.000000
     7  O2    s     0.142167    0.857833    0.500000    0.000000
     8  O3    s     0.246450    0.246450    0.893024    0.000000
     9  O4    s     0.019429    0.019429    0.325656    0.000000
--------------------------------------------------------------------------------

  Final Cartesian lattice vectors (Angstroms) :

        6.759009    3.902316    4.843757
       -6.759009    3.902316    4.843757
        0.000000   -7.804632    4.843757


  Final cell parameters and derivatives :

--------------------------------------------------------------------------------
       a            9.185546 Angstrom     dE/de1(xx)     0.000435 eV/strain
       b            9.185546 Angstrom     dE/de2(yy)     0.000000 eV/strain
       c            9.185546 Angstrom     dE/de3(zz)     0.000140 eV/strain
       alpha       94.754955 Degrees      dE/de4(yz)     0.000000 eV/strain
       beta        94.754955 Degrees      dE/de5(xz)     0.000000 eV/strain
       gamma       94.754955 Degrees      dE/de6(xy)     0.000000 eV/strain
--------------------------------------------------------------------------------

  Primitive cell volume =           766.547479 Angs**3

  Density of cell =      1.562070 g/cm**3

  Non-primitive lattice parameters :

  a    =    13.518018  b   =    13.518018  c    =    14.531272
  alpha=    90.000000  beta=    90.000000  gamma=   120.000000

  Non-primitive cell volume =          2299.642437 Angs**3


  Final internal derivatives :

--------------------------------------------------------------------------------
   No.  Atomic          a             b             c           Radius
        Label          (eV)          (eV)          (eV)        (eV/Angs)
--------------------------------------------------------------------------------
      1 Si    c       0.000123     -0.000252     -0.001957      0.000000
      2 O1    c      -0.000020      0.000000      0.000000      0.000000
      3 O2    c       0.000581      0.000000      0.000000      0.000000
      4 O3    c       0.001091      0.000000      0.000680      0.000000
      5 O4    c       0.000315      0.000000      0.000181      0.000000
      6 O1    s      -0.000356      0.000000      0.000000      0.000000
      7 O2    s       0.000421      0.000000      0.000000      0.000000
      8 O3    s      -0.000922      0.000000     -0.000651      0.000000
      9 O4    s       0.000381      0.000000      0.000084      0.000000
--------------------------------------------------------------------------------
  Maximum abs         0.001091      0.000252      0.001957      0.000000
--------------------------------------------------------------------------------

  Comparison of initial and final structures : 

--------------------------------------------------------------------------------
  Parameter   Initial value   Final value   Difference    Units      Percent
--------------------------------------------------------------------------------
    Volume      2487.231254   2299.642437  -187.588818    Angs**3     -7.54
    a             13.802573     13.518018    -0.284554    Angstroms   -2.06
    b             13.802573     13.518018    -0.284554    Angstroms   -2.06
    c             15.075282     14.531272    -0.544011    Angstroms   -3.61
    alpha         90.000000     90.000000     0.000000    Degrees      0.00
    beta          90.000000     90.000000     0.000000    Degrees      0.00
    gamma        120.000000    120.000000     0.000000    Degrees      0.00
      1 x          0.665711      0.666972     0.001261    Fractional   0.19
      1 y          0.560312      0.560947     0.000634    Fractional   0.11
      1 z          0.436481      0.439441     0.002959    Fractional   0.68
      2 x          0.928011      0.926135     0.001876    Fractional   0.20
      2 y          0.333333      0.333333     0.000000    Fractional   0.00
      2 z          0.333333      0.333333     0.000000    Fractional   0.00
      3 x          0.641729      0.650466     0.008737    Fractional   1.36
      3 y          0.000000      0.000000     0.000000    Fractional   0.00
      3 z          0.500000      0.500000     0.000000    Fractional   0.00
      4 x          0.785480      0.785652     0.000172    Fractional   0.02
      4 y          0.570959      0.571303     0.000344    Fractional   0.06
      4 z          0.461249      0.468720     0.007470    Fractional   1.62
      5 x          0.901505      0.901256     0.000249    Fractional   0.03
      5 y          0.803009      0.802511     0.000498    Fractional   0.06
      5 z          0.117463      0.125882     0.008419    Fractional   7.17
      6 x          0.920950      0.918904     0.002045    Fractional   0.22
      6 y          0.333333      0.333333     0.000000    Fractional   0.00
      6 z          0.333333      0.333333     0.000000    Fractional   0.00
      7 x          0.635829      0.642167     0.006338    Fractional   1.00
      7 y          0.000000      0.000000     0.000000    Fractional   0.00
      7 z          0.500000      0.500000     0.000000    Fractional   0.00
      8 x          0.784410      0.784476     0.000065    Fractional   0.01
      8 y          0.568821      0.568951     0.000130    Fractional   0.02
      8 z          0.456100      0.461975     0.005875    Fractional   1.29
      9 x          0.898191      0.897924     0.000266    Fractional   0.03
      9 y          0.796381      0.795849     0.000533    Fractional   0.07
      9 z          0.114426      0.121505     0.007078    Fractional   6.19
--------------------------------------------------------------------------------


  Born effective charge tensors : 

-------------------------------------------------------------------------------
  Atom             x           y             z
-------------------------------------------------------------------------------
   1 Si    x       3.5095     -0.0150     -0.4183
           y      -0.0187      2.9018      0.1046
           z      -0.3335      0.2825      3.2259
-------------------------------------------------------------------------------
   2 O1    x      -1.0827     -0.0000      0.0000
           y       0.0000     -1.1401     -0.2328
           z       0.0000     -0.0553     -2.4738
-------------------------------------------------------------------------------
   3 O2    x      -1.1187      0.0000     -0.0000
           y       0.0000     -2.2176      0.9234
           z      -0.0000      1.0009     -1.6893
-------------------------------------------------------------------------------
   4 O3    x      -2.7550      0.0000      0.0000
           y      -0.0000     -0.9795     -0.0477
           z      -0.0000     -0.0819     -1.1472
-------------------------------------------------------------------------------
   5 O4    x      -2.3678      0.0000     -0.0000
           y      -0.0000     -1.1614      0.1416
           z       0.0000      0.1279     -1.1415
-------------------------------------------------------------------------------




  Elastic Constant Matrix: (Units=GPa)

-------------------------------------------------------------------------------
  Indices      1         2         3         4         5         6    
-------------------------------------------------------------------------------
       1    121.3076   70.1306   63.8974    6.0975   -0.0000   -0.0000
       2     70.1306  121.3076   63.8974   -6.0975    0.0000    0.0000
       3     63.8974   63.8974   69.5859    0.0000   -0.0000   -0.0000
       4      6.0975   -6.0975    0.0000   27.8595    0.0000   -0.0000
       5     -0.0000    0.0000   -0.0000    0.0000   27.8595    6.0975
       6     -0.0000    0.0000   -0.0000   -0.0000    6.0975   25.5885
-------------------------------------------------------------------------------


  Elastic Compliance Matrix: (Units=1/GPa)

-------------------------------------------------------------------------------
  Indices      1         2         3         4         5         6    
-------------------------------------------------------------------------------
       1    0.017056 -0.003559 -0.012394 -0.004512  0.000000  0.000000
       2   -0.003559  0.017056 -0.012394  0.004512 -0.000000 -0.000000
       3   -0.012394 -0.012394  0.037132  0.000000 -0.000000  0.000000
       4   -0.004512  0.004512  0.000000  0.037869 -0.000000 -0.000000
       5    0.000000 -0.000000 -0.000000 -0.000000  0.037869 -0.009024
       6    0.000000 -0.000000  0.000000 -0.000000 -0.009024  0.041230
-------------------------------------------------------------------------------

  Mechanical properties :

-------------------------------------------------------------------------------
  Convention :                    Reuss         Voigt         Hill
-------------------------------------------------------------------------------
  Bulk  Modulus (GPa)     =      68.72323      78.67245      73.69784
  Shear Modulus (GPa)     =      20.01952      23.87990      21.94971
-------------------------------------------------------------------------------
  Velocity S-wave (km/s)  =       3.57995       3.90990       3.74856
  Velocity P-wave (km/s)  =       7.81556       8.41115       8.11882
-------------------------------------------------------------------------------
  Compressibility (1/GPa) =    0.01455112
-------------------------------------------------------------------------------
  Stress axis :                     x             y             z
-------------------------------------------------------------------------------
  Youngs Moduli (GPa)     =      58.63005      58.63005      26.93114
-------------------------------------------------------------------------------
  Poissons Ratio (x)      =                     0.20867       0.33378
  Poissons Ratio (y)      =       0.20867                     0.33378
  Poissons Ratio (z)      =       0.72664       0.72664
-------------------------------------------------------------------------------


  Piezoelectric Strain Matrix: (Units=C/m**2)

-------------------------------------------------------------------------------
  Indices      1         2         3         4         5         6    
-------------------------------------------------------------------------------
       x     0.00000   0.00000  -0.00000   0.00000   0.00000   0.00000
       y    -0.00000   0.00000  -0.00000   0.00000  -0.00000  -0.00000
       z    -0.00000  -0.00000  -0.00000   0.00000   0.00000  -0.00000
-------------------------------------------------------------------------------


  Piezoelectric Stress Matrix: (Units=10**-11 C/N)

-------------------------------------------------------------------------------
  Indices      1         2         3         4         5         6    
-------------------------------------------------------------------------------
       x     0.00000   0.00000  -0.00000   0.00000   0.00000   0.00000
       y    -0.00000   0.00000  -0.00000   0.00000  -0.00000  -0.00000
       z     0.00000   0.00000  -0.00000   0.00000   0.00000  -0.00000
-------------------------------------------------------------------------------


  Static dielectric constant tensor : 

-------------------------------------------------------------------------------
              x         y         z
-------------------------------------------------------------------------------
       x     2.95514  -0.00000  -0.00000
       y    -0.00000   2.95514   0.00000
       z    -0.00000   0.00000   2.99254
--------------------------------------------------------------------------------

  High frequency dielectric constant tensor : 

-------------------------------------------------------------------------------
              x         y         z
-------------------------------------------------------------------------------
       x     1.59760  -0.00000  -0.00000
       y    -0.00000   1.59760   0.00000
       z    -0.00000   0.00000   1.59899
-------------------------------------------------------------------------------

  Static refractive indices : 

-------------------------------------------------------------------------------
    1 =    1.71905      2 =    1.71905      3 =    1.72990
-------------------------------------------------------------------------------

  High frequency refractive indices : 

-------------------------------------------------------------------------------
    1 =    1.26396      2 =    1.26396      3 =    1.26451
-------------------------------------------------------------------------------


  Phonon Calculation : 

  Number of k points for this configuration =        1

--------------------------------------------------------------------------------
  K point      1 =   0.000000  0.000000  0.000000  Weight =    1.000
--------------------------------------------------------------------------------

  Frequencies (cm-1) [NB: Negative implies an imaginary mode]:

   -0.00    0.00    0.00   72.80   72.80   89.71   92.87   92.87   97.54
   97.54  109.11  130.34  140.08  144.47  144.47  160.85  161.43  172.04
  172.04  173.18  173.18  216.62  222.61  222.61  239.78  239.78  247.75
  267.89  267.89  284.67  285.58  285.58  290.05  290.36  298.05  301.50
  301.50  314.27  314.27  325.04  325.15  353.80  353.80  378.60  379.06
  379.06  380.17  380.17  393.02  398.77  398.77  403.72  436.99  438.04
  438.04  454.82  454.82  456.31  464.55  464.55  467.44  542.71  542.71
  577.79  577.79  623.43  648.03  653.52  653.52  704.55  704.55  820.70
  823.51  826.36  826.36  828.31  828.31  830.30  830.30  831.99  837.01
  837.01  852.20  883.02  895.38  900.80  901.54  901.54  901.95  903.13
  903.13  905.06  907.89  907.89  911.19  911.19  911.51  987.19 1051.98
 1051.98 1057.49 1057.49 1065.34 1067.27 1067.27 1073.58 1085.49 1085.49


--------------------------------------------------------------------------------
  Phonon properties (per mole of unit cells): Temperature =      0.000 K
--------------------------------------------------------------------------------
  Zero point energy            =        3.509368 eV
--------------------------------------------------------------------------------

  Phonon density of states : 

--------------------------------------------------------------------------------
 Frequency (cm-1) Density of States                                             
--------------------------------------------------------------------------------
    0.00000 |**********                                                    0.019
   16.96072 |                                                              0.000
   33.92143 |                                                              0.000
   50.88215 |                                                              0.000
   67.84286 |**********                                                    0.019
   84.80358 |*************************                                     0.047
  101.76430 |*****                                                         0.009
  118.72501 |*****                                                         0.009
  135.68573 |***************                                               0.028
  152.64645 |**********                                                    0.019
  169.60716 |********************                                          0.037
  186.56788 |                                                              0.000
  203.52859 |*****                                                         0.009
  220.48931 |**********                                                    0.019
  237.45003 |***************                                               0.028
  254.41074 |**********                                                    0.019
  271.37146 |***************                                               0.028
  288.33218 |*************************                                     0.047
  305.29289 |**********                                                    0.019
  322.25361 |**********                                                    0.019
  339.21432 |**********                                                    0.019
  356.17504 |                                                              0.000
  373.13576 |*************************                                     0.047
  390.09647 |********************                                          0.037
  407.05719 |                                                              0.000
  424.01791 |***************                                               0.028
  440.97862 |***************                                               0.028
  457.93934 |***************                                               0.028
  474.90005 |                                                              0.000
  491.86077 |                                                              0.000
  508.82149 |                                                              0.000
  525.78220 |**********                                                    0.019
  542.74292 |                                                              0.000
  559.70364 |                                                              0.000
  576.66435 |**********                                                    0.019
  593.62507 |                                                              0.000
  610.58578 |*****                                                         0.009
  627.54650 |                                                              0.000
  644.50722 |***************                                               0.028
  661.46793 |                                                              0.000
  678.42865 |                                                              0.000
  695.38937 |**********                                                    0.019
  712.35008 |                                                              0.000
  729.31080 |                                                              0.000
  746.27151 |                                                              0.000
  763.23223 |                                                              0.000
  780.19295 |                                                              0.000
  797.15366 |                                                              0.000
  814.11438 |****************************************                      0.075
  831.07509 |***************                                               0.028
  848.03581 |*****                                                         0.009
  864.99653 |                                                              0.000
  881.95724 |**********                                                    0.019
  898.91796 |************************************************************  0.112
  915.87868 |                                                              0.000
  932.83939 |                                                              0.000
  949.80011 |                                                              0.000
  966.76082 |                                                              0.000
  983.72154 |*****                                                         0.009
 1000.68226 |                                                              0.000
 1017.64297 |                                                              0.000
 1034.60369 |                                                              0.000
 1051.56441 |***********************************                           0.065
 1068.52512 |***************                                               0.028
--------------------------------------------------------------------------------



  Time to end of optimisation =       0.2741 seconds


********************************************************************************
*  Output for configuration   2 : quartz                                       *
********************************************************************************


  Components of energy : 

--------------------------------------------------------------------------------
  Interatomic potentials     =         103.20999232 eV
  Three-body potentials      =           0.05739430 eV
  Monopole - monopole (real) =        -110.50584923 eV
  Monopole - monopole (recip)=        -379.15713036 eV
  Monopole - monopole (total)=        -489.66297958 eV
--------------------------------------------------------------------------------
  Total lattice energy       =        -386.39559297 eV
--------------------------------------------------------------------------------
  Total lattice energy       =          -37281.2681 kJ/(mole unit cells)
--------------------------------------------------------------------------------


  Number of variables =        9

  Maximum number of calculations  =          1000
  Maximum Hessian update interval =            10
  Maximum step size               =   1.000000000
  Maximum parameter tolerance     =   0.000010000
  Maximum function  tolerance     =   0.000010000
  Maximum gradient  tolerance     =   0.001000000
  Maximum gradient  component     =   0.010000000

  Symmetry constrained optimisation

  Symmetry used for second derivatives

  Cell parameters to be optimised using strains

  Newton-Raphson optimiser to be used

  BFGS hessian update to be used

  Start of bulk optimisation :

  Cycle:      0 Energy:      -386.395593  Gnorm:      3.533409  CPU:    0.276
  ** Hessian calculated **
  Cycle:      1 Energy:      -386.457497  Gnorm:      0.261565  CPU:    0.280
  Cycle:      2 Energy:      -386.458436  Gnorm:      0.111260  CPU:    0.283
  Cycle:      3 Energy:      -386.458959  Gnorm:      0.025941  CPU:    0.285


  **** Optimisation achieved ****


  Final energy =    -386.45896247 eV
  Final Gnorm  =       0.00074401

  Components of energy : 

--------------------------------------------------------------------------------
  Interatomic potentials     =         107.02048518 eV
  Three-body potentials      =           0.04838491 eV
  Monopole - monopole (real) =        -108.22453976 eV
  Monopole - monopole (recip)=        -385.30329281 eV
  Monopole - monopole (total)=        -493.52783257 eV
--------------------------------------------------------------------------------
  Total lattice energy       =        -386.45896247 eV
--------------------------------------------------------------------------------
  Total lattice energy       =          -37287.3823 kJ/(mole unit cells)
--------------------------------------------------------------------------------

  Final asymmetric unit coordinates :

--------------------------------------------------------------------------------
   No.  Atomic        x           y           z         Radius
        Label       (Frac)      (Frac)      (Frac)       (Angs) 
--------------------------------------------------------------------------------
     1  Si    c     0.463540    0.000000    0.333333    0.000000
     2  O     c     0.408012    0.278918    0.225108    0.000000
     3  O     s     0.428010    0.276248    0.213153    0.000000
--------------------------------------------------------------------------------

  Final Cartesian lattice vectors (Angstroms) :

        4.827098    0.000000    0.000000
       -2.413549    4.180389    0.000000
        0.000000    0.000000    5.337213


  Final cell parameters and derivatives :

--------------------------------------------------------------------------------
       a            4.827098 Angstrom     dE/de1(xx)     0.001416 eV/strain
       b            4.827098 Angstrom     dE/de2(yy)     0.000000 eV/strain
       c            5.337213 Angstrom     dE/de3(zz)    -0.001932 eV/strain
       alpha       90.000000 Degrees      dE/de4(yz)     0.000000 eV/strain
       beta        90.000000 Degrees      dE/de5(xz)     0.000000 eV/strain
       gamma      120.000000 Degrees      dE/de6(xy)     0.000000 eV/strain
--------------------------------------------------------------------------------

  Primitive cell volume =           107.700399 Angs**3

  Density of cell =      2.779471 g/cm**3

  Non-primitive cell volume =           107.700399 Angs**3


  Final internal derivatives :

--------------------------------------------------------------------------------
   No.  Atomic          a             b             c           Radius
        Label          (eV)          (eV)          (eV)        (eV/Angs)
--------------------------------------------------------------------------------
      1 Si    c       0.002936      0.000000      0.000000      0.000000
      2 O     c      -0.001728      0.004290      0.001074      0.000000
      3 O     s       0.002338     -0.001227     -0.000978      0.000000
--------------------------------------------------------------------------------
  Maximum abs         0.002936      0.004290      0.001074      0.000000
--------------------------------------------------------------------------------

  Comparison of initial and final structures : 

--------------------------------------------------------------------------------
  Parameter   Initial value   Final value   Difference    Units      Percent
--------------------------------------------------------------------------------
    Volume       113.097184    107.700399    -5.396785    Angs**3     -4.77
    a              4.914730      4.827098    -0.087632    Angstroms   -1.78
    b              4.914730      4.827098    -0.087632    Angstroms   -1.78
    c              5.406570      5.337213    -0.069357    Angstroms   -1.28
    alpha         90.000000     90.000000     0.000000    Degrees      0.00
    beta          90.000000     90.000000     0.000000    Degrees      0.00
    gamma        120.000000    120.000000     0.000000    Degrees      0.00
      1 x          0.468200      0.463540     0.004660    Fractional   1.00
      1 y          0.000000      0.000000     0.000000    Fractional   0.00
      1 z          0.333333      0.333333     0.000000    Fractional   0.00
      2 x          0.413100      0.408012     0.005088    Fractional   1.23
      2 y          0.266100      0.278918     0.012818    Fractional   4.82
      2 z          0.213100      0.225108     0.012008    Fractional   5.63
      3 x          0.431522      0.428010     0.003512    Fractional   0.81
      3 y          0.266445      0.276248     0.009803    Fractional   3.68
      3 z          0.204492      0.213153     0.008661    Fractional   4.24
--------------------------------------------------------------------------------


  Born effective charge tensors : 

-------------------------------------------------------------------------------
  Atom             x           y             z
-------------------------------------------------------------------------------
   1 Si    x       3.1535      0.0000      0.0000
           y       0.0000      3.5630      0.3410
           z       0.0000     -0.1983      3.4588
-------------------------------------------------------------------------------
   2 O     x      -1.4075      0.3813     -0.2536
           y       0.3769     -1.9508      0.5354
           z      -0.1668      0.5949     -1.7294
-------------------------------------------------------------------------------




  Elastic Constant Matrix: (Units=GPa)

-------------------------------------------------------------------------------
  Indices      1         2         3         4         5         6    
-------------------------------------------------------------------------------
       1     95.1455   18.8290   20.0088  -14.4076    0.0000    0.0000
       2     18.8290   95.1455   20.0088   14.4076   -0.0000   -0.0000
       3     20.0088   20.0088  116.9088   -0.0000    0.0000   -0.0000
       4    -14.4076   14.4076   -0.0000   50.2683    0.0000   -0.0000
       5      0.0000   -0.0000    0.0000    0.0000   50.2683  -14.4076
       6      0.0000   -0.0000   -0.0000   -0.0000  -14.4076   38.1582
-------------------------------------------------------------------------------


  Elastic Compliance Matrix: (Units=1/GPa)

-------------------------------------------------------------------------------
  Indices      1         2         3         4         5         6    
-------------------------------------------------------------------------------
       1    0.012014 -0.002679 -0.001598  0.004211 -0.000000 -0.000000
       2   -0.002679  0.012014 -0.001598 -0.004211  0.000000  0.000000
       3   -0.001598 -0.001598  0.009101 -0.000000  0.000000  0.000000
       4    0.004211 -0.004211 -0.000000  0.022307 -0.000000  0.000000
       5   -0.000000  0.000000  0.000000 -0.000000  0.022307  0.008423
       6   -0.000000  0.000000  0.000000  0.000000  0.008423  0.029387
-------------------------------------------------------------------------------

  Mechanical properties :

-------------------------------------------------------------------------------
  Convention :                    Reuss         Voigt         Hill
-------------------------------------------------------------------------------
  Bulk  Modulus (GPa)     =      46.77348      47.21035      46.99192
  Shear Modulus (GPa)     =      39.68064      44.29585      41.98824
-------------------------------------------------------------------------------
  Velocity S-wave (km/s)  =       3.77840       3.99209       3.88672
  Velocity P-wave (km/s)  =       5.98860       6.18340       6.08678
-------------------------------------------------------------------------------
  Compressibility (1/GPa) =    0.02137963
-------------------------------------------------------------------------------
  Stress axis :                     x             y             z
-------------------------------------------------------------------------------
  Youngs Moduli (GPa)     =      83.23527      83.23527     109.88352
-------------------------------------------------------------------------------
  Poissons Ratio (x)      =                     0.22301       0.17556
  Poissons Ratio (y)      =       0.22301                     0.17556
  Poissons Ratio (z)      =       0.13298       0.13298
-------------------------------------------------------------------------------


  Piezoelectric Strain Matrix: (Units=C/m**2)

-------------------------------------------------------------------------------
  Indices      1         2         3         4         5         6    
-------------------------------------------------------------------------------
       x     2.68886  -2.68886  -0.00000  -1.42886   0.00000   0.00000
       y     0.00000  -0.00000  -0.00000   0.00000   1.42886  -2.68886
       z    -0.00000  -0.00000   0.00000   0.00000   0.00000  -0.00000
-------------------------------------------------------------------------------


  Piezoelectric Stress Matrix: (Units=10**-11 C/N)

-------------------------------------------------------------------------------
  Indices      1         2         3         4         5         6    
-------------------------------------------------------------------------------
       x     3.34912  -3.34912  -0.00000  -0.92265   0.00000   0.00000
       y     0.00000  -0.00000  -0.00000   0.00000   0.92265  -6.69824
       z    -0.00000  -0.00000   0.00000   0.00000   0.00000  -0.00000
-------------------------------------------------------------------------------


  Static dielectric constant tensor : 

-------------------------------------------------------------------------------
              x         y         z
-------------------------------------------------------------------------------
       x     4.78512  -0.00000  -0.00000
       y    -0.00000   4.78512   0.00000
       z    -0.00000   0.00000   5.05739
--------------------------------------------------------------------------------

  High frequency dielectric constant tensor : 

-------------------------------------------------------------------------------
              x         y         z
-------------------------------------------------------------------------------
       x     2.12551  -0.00000   0.00000
       y    -0.00000   2.12551  -0.00000
       z     0.00000  -0.00000   2.14912
-------------------------------------------------------------------------------

  Static refractive indices : 

-------------------------------------------------------------------------------
    1 =    2.18749      2 =    2.18749      3 =    2.24886
-------------------------------------------------------------------------------

  High frequency refractive indices : 

-------------------------------------------------------------------------------
    1 =    1.45791      2 =    1.45791      3 =    1.46599
-------------------------------------------------------------------------------


  Phonon Calculation : 

  Number of k points for this configuration =        1

--------------------------------------------------------------------------------
  K point      2 =   0.000000  0.000000  0.000000  Weight =    1.000
--------------------------------------------------------------------------------

  Frequencies (cm-1) [NB: Negative implies an imaginary mode]:

   -0.00   -0.00    0.00  146.78  146.78  232.34  271.78  271.78  326.76
  339.54  398.42  398.42  440.58  440.58  468.30  509.59  719.04  719.04
  815.98  824.39  824.39  886.31  886.31  886.31  901.53 1016.82 1016.82


--------------------------------------------------------------------------------
  Phonon properties (per mole of unit cells): Temperature =      0.000 K
--------------------------------------------------------------------------------
  Zero point energy            =        0.860987 eV
--------------------------------------------------------------------------------

  Phonon density of states : 

--------------------------------------------------------------------------------
 Frequency (cm-1) Density of States                                             
--------------------------------------------------------------------------------
    0.00000 |********************                                          0.040
   15.88776 |                                                              0.000
   31.77552 |                                                              0.000
   47.66328 |                                                              0.000
   63.55103 |                                                              0.000
   79.43879 |                                                              0.000
   95.32655 |                                                              0.000
  111.21431 |                                                              0.000
  127.10207 |                                                              0.000
  142.98983 |****************************************                      0.080
  158.87759 |                                                              0.000
  174.76535 |                                                              0.000
  190.65310 |                                                              0.000
  206.54086 |                                                              0.000
  222.42862 |********************                                          0.040
  238.31638 |                                                              0.000
  254.20414 |                                                              0.000
  270.09190 |****************************************                      0.080
  285.97966 |                                                              0.000
  301.86741 |                                                              0.000
  317.75517 |********************                                          0.040
  333.64293 |********************                                          0.040
  349.53069 |                                                              0.000
  365.41845 |                                                              0.000
  381.30621 |                                                              0.000
  397.19397 |****************************************                      0.080
  413.08173 |                                                              0.000
  428.96948 |****************************************                      0.080
  444.85724 |                                                              0.000
  460.74500 |********************                                          0.040
  476.63276 |                                                              0.000
  492.52052 |                                                              0.000
  508.40828 |********************                                          0.040
  524.29604 |                                                              0.000
  540.18380 |                                                              0.000
  556.07155 |                                                              0.000
  571.95931 |                                                              0.000
  587.84707 |                                                              0.000
  603.73483 |                                                              0.000
  619.62259 |                                                              0.000
  635.51035 |                                                              0.000
  651.39811 |                                                              0.000
  667.28586 |                                                              0.000
  683.17362 |                                                              0.000
  699.06138 |                                                              0.000
  714.94914 |****************************************                      0.080
  730.83690 |                                                              0.000
  746.72466 |                                                              0.000
  762.61242 |                                                              0.000
  778.50018 |                                                              0.000
  794.38793 |                                                              0.000
  810.27569 |************************************************************  0.120
  826.16345 |                                                              0.000
  842.05121 |                                                              0.000
  857.93897 |                                                              0.000
  873.82673 |************************************************************  0.120
  889.71449 |********************                                          0.040
  905.60224 |                                                              0.000
  921.49000 |                                                              0.000
  937.37776 |                                                              0.000
  953.26552 |                                                              0.000
  969.15328 |                                                              0.000
  985.04104 |                                                              0.000
 1000.92880 |****************************************                      0.080
--------------------------------------------------------------------------------



  Time to end of optimisation =       0.3009 seconds


  Peak dynamic memory used =       1.34 MB 


  Timing analysis for GULP :

--------------------------------------------------------------------------------
  Task / Subroutine                                          Time (Seconds)
--------------------------------------------------------------------------------
  Calculation of reciprocal space energy and derivatives          0.0391
  Calculation of reciprocal space energy using symmetry           0.0174
  Calculation of real space energy and derivatives                0.0961
  Calculation of real space energy using symmetry                 0.1160
  Calculation of three-body energy and derivatives                0.0078
  Calculation of phonons                                          0.0550
  Calculation of scattering                                       0.0000
  Calculation of matrix inversion                                 0.0004
  Symmetry generation of equivalent positions                     0.0019
--------------------------------------------------------------------------------
  Total CPU time                                                  0.3011
--------------------------------------------------------------------------------


  Job Finished at 10:15.52 23rd February   2015                               

