
     Program PWSCF v.5.1.1 (svn rev. 11300) starts on  2Feb2015 at 18:13:46 

     This program is part of the open-source Quantum ESPRESSO suite
     for quantum simulation of materials; please cite
         "P. Giannozzi et al., J. Phys.:Condens. Matter 21 395502 (2009);
          URL http://www.quantum-espresso.org", 
     in publications or presentations arising from this work. More details at
     http://www.quantum-espresso.org/quote

     Parallel version (MPI & OpenMP), running on      96 processor cores
     Number of MPI processes:                96
     Threads/MPI process:                     1
     R & G space division:  proc/nbgrp/npool/nimage =      96
     Waiting for input...
     Reading input from standard input

     Current dimensions of program PWSCF are:
     Max number of different atomic species (ntypx) = 10
     Max number of k-points (npk) =  40000
     Max angular momentum in pseudopotentials (lmaxx) =  3

     IMPORTANT: XC functional enforced from input :
     Exchange-correlation      = B86BPBE ( 1  4 22  4 0 0)
     Any further DFT definition will be discarded
     Please, verify this is what you really want

               file N.UPF: wavefunction(s)  Xn Xn renormalized
               file O.UPF: wavefunction(s)  Xn Xn renormalized

     Subspace diagonalization in iterative solution of the eigenvalue problem:
     scalapack distributed-memory algorithm (size of sub-group:  6*  6 procs)

 
     Parallelization info
     --------------------
     sticks:   dense  smooth     PW     G-vecs:    dense   smooth      PW
     Min         228      91     23                23034     5818     773
     Max         229      92     24                23041     5839     782
     Sum       21955    8779   2301              2211569   559493   74741
 

     Title: 
     hippuric                                                                   


     bravais-lattice index     =            0
     lattice parameter (alat)  =      20.0046  a.u.
     unit-cell volume          =    5787.3427 (a.u.)^3
     number of atoms/cell      =           88
     number of atomic types    =            4
     number of electrons       =       272.00
     number of Kohn-Sham states=          136
     kinetic-energy cutoff     =      80.0000  Ry
     charge density cutoff     =     800.0000  Ry
     convergence threshold     =      1.0E-08
     mixing beta               =       0.7000
     number of iterations used =            8  plain     mixing
     Exchange-correlation      = B86BPBE ( 1  4 22  4 0 0)
     nstep                     =          500


     celldm(1)=  20.004642  celldm(2)=   0.000000  celldm(3)=   0.000000
     celldm(4)=   0.000000  celldm(5)=   0.000000  celldm(6)=   0.000000

     crystal axes: (cart. coord. in units of alat)
               a(1) = (   1.000000   0.000000   0.000000 )  
               a(2) = (   0.000000   0.861799   0.000000 )  
               a(3) = (   0.000000   0.000000   0.838844 )  

     reciprocal axes: (cart. coord. in units 2 pi/alat)
               b(1) = (  1.000000  0.000000  0.000000 )  
               b(2) = (  0.000000  1.160364  0.000000 )  
               b(3) = (  0.000000  0.000000  1.192117 )  


     PseudoPot. # 1 for C  read from file:
     ./C.UPF
     MD5 check sum: 7d4f5342ccdded2f34e910ef3a0bffe3
     Pseudo is Projector augmented-wave + core cor, Zval =  4.0
     Generated using ATOMPAW code
     Shape of augmentation charge: SINC**2
     Using radial grid of 2342 points,  2 beta functions with: 
                l(1) =   0
                l(2) =   1
     Q(r) pseudized with 0 coefficients 


     PseudoPot. # 2 for H  read from file:
     ./H.UPF
     MD5 check sum: a1a08a69276e7e7269f03dd4353a4644
     Pseudo is Projector augmented-wave + core cor, Zval =  1.0
     Generated using ATOMPAW code
     Shape of augmentation charge: SINC**2
     Using radial grid of 2342 points,  1 beta functions with: 
                l(1) =   0
     Q(r) pseudized with 0 coefficients 


     PseudoPot. # 3 for N  read from file:
     ./N.UPF
     MD5 check sum: 5aec23488194fe1e9fcb5a39c003f111
     Pseudo is Projector augmented-wave + core cor, Zval =  5.0
     Generated using ATOMPAW code
     Shape of augmentation charge: SINC**2
     Using radial grid of 2342 points,  4 beta functions with: 
                l(1) =   0
                l(2) =   0
                l(3) =   1
                l(4) =   1
     Q(r) pseudized with 0 coefficients 


     PseudoPot. # 4 for O  read from file:
     ./O.UPF
     MD5 check sum: 2d688a4fb970915d860abe01db6d1753
     Pseudo is Projector augmented-wave + core cor, Zval =  6.0
     Generated using ATOMPAW code
     Shape of augmentation charge: SINC**2
     Using radial grid of 2342 points,  4 beta functions with: 
                l(1) =   0
                l(2) =   0
                l(3) =   1
                l(4) =   1
     Q(r) pseudized with 0 coefficients 


     atomic species   valence    mass     pseudopotential
        C              4.00    12.01070     C ( 1.00)
        H              1.00     1.00794     H ( 1.00)
        N              5.00    14.00670     N ( 1.00)
        O              6.00    15.99940     O ( 1.00)

      4 Sym. Ops. (no inversion) found ( 3 have fractional translation)



   Cartesian axes

     site n.     atom                  positions (alat units)
         1           C   tau(   1) = (   0.7292200   0.3277334   0.1126399  )
         2           C   tau(   2) = (   0.6818300   0.2677694   0.2325778  )
         3           C   tau(   3) = (   0.4762100   0.3542509   0.2870691  )
         4           C   tau(   4) = (   0.3360900   0.3366444   0.2975882  )
         5           C   tau(   5) = (   0.2692100   0.4231690   0.3701398  )
         6           C   tau(   6) = (   0.1385500   0.4157403   0.3785366  )
         7           C   tau(   7) = (   0.0744700   0.3197790   0.3176114  )
         8           C   tau(   8) = (   0.1400300   0.2312206   0.2458651  )
         9           C   tau(   9) = (   0.2717900   0.2390285   0.2353544  )
        10           H   tau(  10) = (   0.8882100   0.3602663   0.0290911  )
        11           H   tau(  11) = (   0.7205600   0.1744797   0.2403791  )
        12           H   tau(  12) = (   0.7191700   0.3264579   0.3105483  )
        13           H   tau(  13) = (   0.5049300   0.1815723   0.2057432  )
        14           H   tau(  14) = (   0.3219900   0.4996536   0.4177861  )
        15           H   tau(  15) = (   0.0841700   0.4832191   0.4338584  )
        16           H   tau(  16) = (  -0.0292600   0.3127984   0.3225941  )
        17           H   tau(  17) = (   0.0886700   0.1557011   0.1952409  )
        18           H   tau(  18) = (   0.3207900   0.1693176   0.1798900  )
        19           N   tau(  19) = (   0.5457200   0.2590825   0.2404630  )
        20           O   tau(  20) = (   0.8516300   0.3194429   0.1060466  )
        21           O   tau(  21) = (   0.6643300   0.3730381   0.0309198  )
        22           O   tau(  22) = (   0.5248000   0.4543057   0.3229716  )
        23           O   tau(  23) = (  -0.0248000   0.4074928   0.7423935  )
        24           O   tau(  24) = (  -0.1643300   0.4887604   0.4503417  )
        25           O   tau(  25) = (  -0.3516300   0.5423557   0.5254685  )
        26           N   tau(  26) = (  -0.0457200   0.6027161   0.6598848  )
        27           H   tau(  27) = (   0.1792100   0.6924810   0.5993119  )
        28           H   tau(  28) = (   0.4113300   0.7060974   0.6146628  )
        29           H   tau(  29) = (   0.5292600   0.5490002   0.7420160  )
        30           H   tau(  30) = (   0.4158300   0.3785795   0.8532803  )
        31           H   tau(  31) = (   0.1780100   0.3621450   0.8372080  )
        32           H   tau(  32) = (  -0.0049300   0.6802262   0.6251651  )
        33           H   tau(  33) = (  -0.2191700   0.5353407   0.7299702  )
        34           H   tau(  34) = (  -0.2205600   0.6873188   0.6598009  )
        35           H   tau(  35) = (  -0.3882100   0.5015323   0.4485130  )
        36           C   tau(  36) = (   0.2282100   0.6227701   0.6547763  )
        37           C   tau(  37) = (   0.3599700   0.6305780   0.6652870  )
        38           C   tau(  38) = (   0.4255300   0.5420196   0.7370333  )
        39           C   tau(  39) = (   0.3614500   0.4460583   0.7979585  )
        40           C   tau(  40) = (   0.2307900   0.4386296   0.7895617  )
        41           C   tau(  41) = (   0.1639100   0.5251542   0.7170101  )
        42           C   tau(  42) = (   0.0237900   0.5075477   0.7064910  )
        43           C   tau(  43) = (  -0.1818300   0.5940291   0.6519997  )
        44           C   tau(  44) = (  -0.2292200   0.5340652   0.5320618  )
        45           O   tau(  45) = (   0.4752000   0.8852050   0.0964503  )
        46           O   tau(  46) = (   0.3356700   0.8039374   0.3885021  )
        47           O   tau(  47) = (   0.1483700   0.7503422   0.3133752  )
        48           N   tau(  48) = (   0.4542800   0.6899818   0.1789589  )
        49           H   tau(  49) = (   0.6792100   0.6002169   0.2395318  )
        50           H   tau(  50) = (   0.9113300   0.5866004   0.2241810  )
        51           H   tau(  51) = (   1.0292600   0.7436977   0.0968277  )
        52           H   tau(  52) = (   0.9158300   0.9141184  -0.0144365  )
        53           H   tau(  53) = (   0.6780100   0.9305529   0.0016357  )
        54           H   tau(  54) = (   0.4950700   0.6124716   0.2136787  )
        55           H   tau(  55) = (   0.2808300   0.7573572   0.1088735  )
        56           H   tau(  56) = (   0.2794400   0.6053790   0.1790428  )
        57           H   tau(  57) = (   0.1117900   0.7911656   0.3903308  )
        58           C   tau(  58) = (   0.7282100   0.6699277   0.1840675  )
        59           C   tau(  59) = (   0.8599700   0.6621198   0.1735568  )
        60           C   tau(  60) = (   0.9255300   0.7506783   0.1018105  )
        61           C   tau(  61) = (   0.8614500   0.8466395   0.0408852  )
        62           C   tau(  62) = (   0.7307900   0.8540682   0.0492821  )
        63           C   tau(  63) = (   0.6639100   0.7675437   0.1218337  )
        64           C   tau(  64) = (   0.5237900   0.7851502   0.1323528  )
        65           C   tau(  65) = (   0.3181700   0.6986687   0.1868441  )
        66           C   tau(  66) = (   0.2707800   0.7586327   0.3067819  )
        67           O   tau(  67) = (   1.0248000  -0.0234064   0.5158721  )
        68           O   tau(  68) = (   1.1643300   0.0578612   0.8079240  )
        69           O   tau(  69) = (   1.3516300   0.1114564   0.7327971  )
        70           N   tau(  70) = (   1.0457200   0.1718168   0.5983808  )
        71           H   tau(  71) = (   0.8207900   0.2615817   0.6589537  )
        72           H   tau(  72) = (   0.5886700   0.2751981   0.6436029  )
        73           H   tau(  73) = (   0.4707400   0.1181009   0.5162496  )
        74           H   tau(  74) = (   0.5841700  -0.0523198   0.4049854  )
        75           H   tau(  75) = (   0.8219900  -0.0687543   0.4210576  )
        76           H   tau(  76) = (   1.0049300   0.2493269   0.6331005  )
        77           H   tau(  77) = (   1.2191700   0.1044414   0.5282954  )
        78           H   tau(  78) = (   1.2205600   0.2564195   0.5984647  )
        79           H   tau(  79) = (   1.3882100   0.0706330   0.8097527  )
        80           C   tau(  80) = (   0.7717900   0.1918708   0.6034894  )
        81           C   tau(  81) = (   0.6400300   0.1996787   0.5929786  )
        82           C   tau(  82) = (   0.5744700   0.1111203   0.5212323  )
        83           C   tau(  83) = (   0.6385500   0.0151590   0.4603071  )
        84           C   tau(  84) = (   0.7692100   0.0077303   0.4687039  )
        85           C   tau(  85) = (   0.8360900   0.0942549   0.5412555  )
        86           C   tau(  86) = (   0.9762100   0.0766484   0.5517746  )
        87           C   tau(  87) = (   1.1818300   0.1631299   0.6062659  )
        88           C   tau(  88) = (   1.2292200   0.1031659   0.7262038  )

     number of k points=     8
                       cart. coord. in units 2pi/alat
        k(    1) = (   0.0000000   0.0000000   0.0000000), wk =   0.0740741
        k(    2) = (   0.0000000   0.0000000   0.3973724), wk =   0.1481481
        k(    3) = (   0.0000000   0.3867880   0.0000000), wk =   0.1481481
        k(    4) = (   0.0000000   0.3867880   0.3973724), wk =   0.2962963
        k(    5) = (   0.3333333   0.0000000   0.0000000), wk =   0.1481481
        k(    6) = (   0.3333333   0.0000000   0.3973724), wk =   0.2962963
        k(    7) = (   0.3333333   0.3867880   0.0000000), wk =   0.2962963
        k(    8) = (   0.3333333   0.3867880   0.3973724), wk =   0.5925926

     Dense  grid:  2211569 G-vectors     FFT dimensions: ( 192, 160, 160)

     Smooth grid:   559493 G-vectors     FFT dimensions: ( 120, 100,  96)

     Largest allocated arrays     est. size (Mb)     dimensions
        Kohn-Sham Wavefunctions         1.51 Mb     (     730,  136)
        NL pseudopotentials             3.43 Mb     (     730,  308)
        Each V/rho on FFT grid          0.94 Mb     (   61440)
        Each G-vector array             0.18 Mb     (   23036)
        G-vector shells                 0.18 Mb     (   23036)
     Largest temporary arrays     est. size (Mb)     dimensions
        Auxiliary wavefunctions         6.06 Mb     (     730,  544)
        Each subspace H/S matrix        0.12 Mb     (      90,   90)
        Each <psi_i|beta_j> matrix      0.64 Mb     (     308,  136)
        Arrays for rho mixing           7.50 Mb     (   61440,    8)

     Initial potential from superposition of free atoms

     starting charge  271.99816, renormalised to  272.00000
     Starting wfc are  308 randomized atomic wfcs
     Checking if some PAW data can be deallocated... 

     total cpu time spent up to now is       12.0 secs

     per-process dynamical memory:    73.2 Mb

     Self-consistent Calculation

     iteration #  1     ecut=    80.00 Ry     beta=0.70
     Davidson diagonalization with overlap
     ethr =  1.00E-02,  avg # of iterations =  2.0

     total cpu time spent up to now is       21.8 secs

     total energy              =   -1317.55735564 Ry
     Harris-Foulkes estimate   =   -1324.65821265 Ry
     estimated scf accuracy    <      10.64326760 Ry

     iteration #  2     ecut=    80.00 Ry     beta=0.70
     Davidson diagonalization with overlap
     ethr =  3.91E-03,  avg # of iterations =  3.0

     total cpu time spent up to now is       31.6 secs

     total energy              =   -1319.51122442 Ry
     Harris-Foulkes estimate   =   -1322.41763393 Ry
     estimated scf accuracy    <       4.95089618 Ry

     iteration #  3     ecut=    80.00 Ry     beta=0.70
     Davidson diagonalization with overlap
     ethr =  1.82E-03,  avg # of iterations =  3.0

     total cpu time spent up to now is       41.3 secs

     total energy              =   -1320.74267104 Ry
     Harris-Foulkes estimate   =   -1321.00870559 Ry
     estimated scf accuracy    <       0.48666828 Ry

     iteration #  4     ecut=    80.00 Ry     beta=0.70
     Davidson diagonalization with overlap
     ethr =  1.79E-04,  avg # of iterations =  4.0

     total cpu time spent up to now is       51.5 secs

     total energy              =   -1320.84561817 Ry
     Harris-Foulkes estimate   =   -1320.92421178 Ry
     estimated scf accuracy    <       0.15390006 Ry

     iteration #  5     ecut=    80.00 Ry     beta=0.70
     Davidson diagonalization with overlap
     ethr =  5.66E-05,  avg # of iterations =  4.0

     total cpu time spent up to now is       61.3 secs

     total energy              =   -1320.88332384 Ry
     Harris-Foulkes estimate   =   -1320.89139559 Ry
     estimated scf accuracy    <       0.01735036 Ry

     iteration #  6     ecut=    80.00 Ry     beta=0.70
     Davidson diagonalization with overlap
     ethr =  6.38E-06,  avg # of iterations =  4.0

     total cpu time spent up to now is       71.3 secs

     total energy              =   -1320.88711374 Ry
     Harris-Foulkes estimate   =   -1320.88760564 Ry
     estimated scf accuracy    <       0.00098076 Ry

     iteration #  7     ecut=    80.00 Ry     beta=0.70
     Davidson diagonalization with overlap
     ethr =  3.61E-07,  avg # of iterations =  4.0

     total cpu time spent up to now is       81.8 secs

     total energy              =   -1320.88735634 Ry
     Harris-Foulkes estimate   =   -1320.88749757 Ry
     estimated scf accuracy    <       0.00028385 Ry

     iteration #  8     ecut=    80.00 Ry     beta=0.70
     Davidson diagonalization with overlap
     ethr =  1.04E-07,  avg # of iterations =  4.0

     total cpu time spent up to now is       91.7 secs

     total energy              =   -1320.88742889 Ry
     Harris-Foulkes estimate   =   -1320.88744870 Ry
     estimated scf accuracy    <       0.00004536 Ry

     iteration #  9     ecut=    80.00 Ry     beta=0.70
     Davidson diagonalization with overlap
     ethr =  1.67E-08,  avg # of iterations =  4.0

     total cpu time spent up to now is      102.0 secs

     total energy              =   -1320.88743913 Ry
     Harris-Foulkes estimate   =   -1320.88744090 Ry
     estimated scf accuracy    <       0.00000386 Ry

     iteration # 10     ecut=    80.00 Ry     beta=0.70
     Davidson diagonalization with overlap
     ethr =  1.42E-09,  avg # of iterations =  3.0

     total cpu time spent up to now is      111.7 secs

     total energy              =   -1320.88744006 Ry
     Harris-Foulkes estimate   =   -1320.88744009 Ry
     estimated scf accuracy    <       0.00000011 Ry

     iteration # 11     ecut=    80.00 Ry     beta=0.70
     Davidson diagonalization with overlap
     ethr =  4.14E-11,  avg # of iterations =  4.0

     total cpu time spent up to now is      122.7 secs

     total energy              =   -1320.88744011 Ry
     Harris-Foulkes estimate   =   -1320.88744012 Ry
     estimated scf accuracy    <       0.00000004 Ry

     iteration # 12     ecut=    80.00 Ry     beta=0.70
     Davidson diagonalization with overlap
     ethr =  1.32E-11,  avg # of iterations =  4.0

     total cpu time spent up to now is      132.7 secs

     End of self-consistent calculation

          k = 0.0000 0.0000 0.0000 ( 69991 PWs)   bands (ev):

   -21.5351 -21.5322 -21.5158 -21.5148 -20.3092 -20.2690 -20.2536 -20.2164
   -19.0286 -19.0263 -19.0029 -19.0028 -17.2516 -17.2451 -17.1162 -17.1051
   -15.1515 -15.1309 -15.0990 -15.0987 -13.0197 -12.9737 -12.8905 -12.8714
   -12.2348 -12.2192 -12.2165 -12.1441 -12.0664 -12.0379 -12.0201 -11.9848
   -10.0048  -9.9106  -9.6504  -9.6112  -9.0923  -8.9099  -8.8457  -8.8102
    -8.6815  -8.5760  -8.5172  -8.4781  -8.4558  -8.3654  -8.3480  -8.2467
    -7.1829  -7.1657  -7.1142  -7.1065  -6.2762  -6.2211  -6.2110  -6.1469
    -5.9437  -5.8858  -5.8553  -5.8189  -5.8090  -5.7488  -5.7060  -5.6014
    -5.3682  -5.3204  -5.1731  -5.1590  -5.1309  -5.0755  -4.9206  -4.8860
    -4.8613  -4.8248  -4.6503  -4.6420  -4.6408  -4.6144  -4.5217  -4.3926
    -4.2469  -4.1598  -4.1345  -4.0645  -3.9534  -3.9491  -3.9081  -3.8262
    -3.8250  -3.7893  -3.7221  -3.6710  -3.2099  -3.1894  -3.1893  -3.0844
    -3.0217  -2.9092  -2.8940  -2.7571  -2.6509  -2.5812  -2.5491  -2.3526
    -2.1324  -2.1222  -2.0934  -2.0574  -1.9252  -1.9125  -1.8693  -1.8444
    -1.2801  -1.2677  -1.2351  -1.2291  -0.7901  -0.7588  -0.6707  -0.5450
    -0.4423  -0.3828  -0.3058  -0.2825  -0.2075  -0.2041  -0.1717  -0.1432
    -0.0814  -0.0723  -0.0252  -0.0224   0.0423   0.2014   0.2179   0.2661

          k = 0.0000 0.0000 0.3974 ( 69938 PWs)   bands (ev):

   -21.5304 -21.5279 -21.5207 -21.5192 -20.2993 -20.2791 -20.2444 -20.2258
   -19.0222 -19.0200 -19.0095 -19.0081 -17.2501 -17.2468 -17.1136 -17.1080
   -15.1403 -15.1213 -15.1157 -15.1035 -12.9880 -12.9485 -12.9236 -12.8972
   -12.2288 -12.2214 -12.2003 -12.1640 -12.0518 -12.0287 -12.0279 -12.0027
    -9.9340  -9.8418  -9.7665  -9.6919  -9.0056  -8.8933  -8.8697  -8.8217
    -8.6576  -8.5996  -8.4928  -8.4823  -8.4570  -8.4097  -8.3042  -8.2621
    -7.1776  -7.1591  -7.1283  -7.1224  -6.2550  -6.2164  -6.2153  -6.1818
    -5.9422  -5.9264  -5.8364  -5.8300  -5.7511  -5.7086  -5.7072  -5.6436
    -5.3038  -5.2629  -5.2022  -5.1598  -5.1592  -5.0678  -5.0303  -4.9433
    -4.8255  -4.8197  -4.6375  -4.6224  -4.6178  -4.5806  -4.5485  -4.4433
    -4.2276  -4.1567  -4.1177  -4.1020  -3.9654  -3.9106  -3.9026  -3.8475
    -3.7845  -3.7514  -3.7510  -3.6807  -3.2240  -3.1884  -3.1409  -3.0667
    -3.0367  -2.9111  -2.8544  -2.8495  -2.6146  -2.5660  -2.5409  -2.4282
    -2.1279  -2.1193  -2.1080  -2.0826  -1.9075  -1.8999  -1.8782  -1.8669
    -1.2682  -1.2538  -1.2472  -1.2335  -0.7679  -0.6986  -0.6853  -0.5921
    -0.4122  -0.3875  -0.2868  -0.2657  -0.2320  -0.2215  -0.1707  -0.1601
    -0.0750  -0.0401  -0.0098  -0.0039   0.0798   0.1463   0.2116   0.2409

          k = 0.0000 0.3868 0.0000 ( 69923 PWs)   bands (ev):

   -21.5344 -21.5329 -21.5156 -21.5151 -20.2957 -20.2679 -20.2561 -20.2299
   -19.0280 -19.0269 -19.0029 -19.0028 -17.2178 -17.2101 -17.1501 -17.1401
   -15.1470 -15.1368 -15.0984 -15.0984 -13.0100 -12.9873 -12.8862 -12.8765
   -12.2282 -12.2188 -12.1993 -12.1623 -12.0587 -12.0428 -12.0126 -11.9936
    -9.9783  -9.9314  -9.6357  -9.6168  -9.0462  -8.9552  -8.8351  -8.8167
    -8.6249  -8.5132  -8.5076  -8.5040  -8.4668  -8.3976  -8.3742  -8.3258
    -7.1905  -7.1852  -7.1156  -7.1144  -6.2820  -6.2706  -6.1640  -6.1474
    -5.9380  -5.8956  -5.8619  -5.8077  -5.7870  -5.7705  -5.6833  -5.6339
    -5.3528  -5.3325  -5.1357  -5.1064  -5.1042  -5.0785  -4.8926  -4.8701
    -4.8050  -4.7321  -4.6904  -4.6617  -4.6405  -4.5853  -4.5538  -4.4751
    -4.2239  -4.1663  -4.1204  -4.0864  -4.0102  -4.0084  -3.8628  -3.8437
    -3.8140  -3.7929  -3.7118  -3.6907  -3.2378  -3.2144  -3.1867  -3.1640
    -2.9506  -2.9158  -2.8558  -2.7898  -2.6263  -2.6047  -2.4705  -2.3840
    -2.1276  -2.1220  -2.0774  -2.0620  -1.9013  -1.8944  -1.8719  -1.8556
    -1.2779  -1.2709  -1.2476  -1.2456  -0.7662  -0.7610  -0.6246  -0.5507
    -0.4322  -0.3581  -0.3575  -0.2954  -0.2505  -0.2351  -0.1736  -0.1420
    -0.0873  -0.0696  -0.0075  -0.0051   0.0754   0.1401   0.2470   0.2615

          k = 0.0000 0.3868 0.3974 ( 69947 PWs)   bands (ev):

   -21.5298 -21.5286 -21.5203 -21.5196 -20.2859 -20.2663 -20.2583 -20.2394
   -19.0216 -19.0206 -19.0092 -19.0084 -17.2160 -17.2121 -17.1477 -17.1427
   -15.1367 -15.1282 -15.1108 -15.1056 -12.9798 -12.9602 -12.9177 -12.9046
   -12.2196 -12.2081 -12.2017 -12.1760 -12.0470 -12.0369 -12.0198 -12.0083
    -9.9082  -9.8625  -9.7432  -9.7065  -8.9717  -8.9094  -8.8658  -8.8351
    -8.6021  -8.5457  -8.4988  -8.4755  -8.4649  -8.4226  -8.3637  -8.3402
    -7.1835  -7.1756  -7.1360  -7.1321  -6.2589  -6.2493  -6.1914  -6.1832
    -5.9326  -5.9201  -5.8609  -5.8441  -5.7307  -5.7158  -5.6869  -5.6581
    -5.2773  -5.2594  -5.1610  -5.1326  -5.1127  -5.0582  -5.0144  -4.9540
    -4.7559  -4.7388  -4.6503  -4.6358  -4.6252  -4.5948  -4.5797  -4.5058
    -4.2090  -4.1653  -4.1289  -4.1184  -3.9618  -3.9557  -3.8684  -3.8554
    -3.7919  -3.7805  -3.7273  -3.6974  -3.2400  -3.2118  -3.1731  -3.1628
    -2.9716  -2.9321  -2.8312  -2.8192  -2.6023  -2.5792  -2.4977  -2.4453
    -2.1205  -2.1154  -2.0990  -2.0830  -1.8919  -1.8859  -1.8719  -1.8625
    -1.2739  -1.2633  -1.2592  -1.2499  -0.7394  -0.7038  -0.6307  -0.5786
    -0.4104  -0.3766  -0.3315  -0.3004  -0.2537  -0.2519  -0.1642  -0.1508
    -0.0650  -0.0432  -0.0184   0.0002   0.0966   0.1219   0.2279   0.2401

          k = 0.3333 0.0000 0.0000 ( 69943 PWs)   bands (ev):

   -21.5344 -21.5329 -21.5156 -21.5151 -20.3029 -20.2859 -20.2374 -20.2220
   -19.0280 -19.0269 -19.0028 -19.0028 -17.2500 -17.2468 -17.1133 -17.1077
   -15.1489 -15.1395 -15.0970 -15.0960 -12.9929 -12.9551 -12.9123 -12.8873
   -12.2360 -12.2328 -12.1880 -12.1562 -12.0558 -12.0440 -12.0210 -12.0017
    -9.9968  -9.9536  -9.6417  -9.6235  -9.0321  -8.9525  -8.7813  -8.7610
    -8.6868  -8.6111  -8.4907  -8.4899  -8.4512  -8.4196  -8.3255  -8.2712
    -7.2327  -7.1819  -7.0398  -7.0285  -6.2643  -6.2395  -6.2017  -6.1561
    -5.9928  -5.9704  -5.8615  -5.8276  -5.8159  -5.7680  -5.6978  -5.6714
    -5.3173  -5.2466  -5.2256  -5.1523  -5.1120  -5.1061  -4.9819  -4.9686
    -4.8428  -4.8147  -4.6334  -4.6249  -4.6027  -4.5908  -4.4826  -4.3449
    -4.2095  -4.1399  -4.1272  -4.1183  -3.9795  -3.9744  -3.8508  -3.8491
    -3.7973  -3.7622  -3.7580  -3.6864  -3.2173  -3.2131  -3.1069  -3.0447
    -2.9891  -2.8824  -2.8130  -2.7523  -2.7228  -2.6088  -2.5763  -2.4500
    -2.1137  -2.1028  -2.0938  -2.0598  -1.9571  -1.9495  -1.8508  -1.8376
    -1.2876  -1.2814  -1.2405  -1.2370  -0.7764  -0.7496  -0.6669  -0.5974
    -0.4337  -0.4185  -0.2593  -0.2371  -0.1958  -0.1519  -0.1102  -0.0904
    -0.0755  -0.0730  -0.0305  -0.0235   0.0032   0.1307   0.1941   0.2343

          k = 0.3333 0.0000 0.3974 ( 69959 PWs)   bands (ev):

   -21.5297 -21.5285 -21.5204 -21.5196 -20.2953 -20.2857 -20.2382 -20.2294
   -19.0217 -19.0206 -19.0091 -19.0084 -17.2493 -17.2477 -17.1121 -17.1093
   -15.1381 -15.1303 -15.1092 -15.1045 -12.9733 -12.9441 -12.9255 -12.9026
   -12.2268 -12.2238 -12.1855 -12.1665 -12.0504 -12.0393 -12.0313 -12.0185
    -9.9273  -9.8874  -9.7474  -9.7156  -8.9508  -8.8972  -8.8048  -8.7793
    -8.6814  -8.6400  -8.5017  -8.4786  -8.4457  -8.4129  -8.3209  -8.2900
    -7.1875  -7.1485  -7.0835  -7.0727  -6.2468  -6.2272  -6.2078  -6.1843
    -5.9648  -5.9312  -5.8877  -5.8300  -5.7980  -5.7683  -5.7099  -5.6855
    -5.3103  -5.2611  -5.2595  -5.2128  -5.0997  -5.0407  -5.0400  -4.9737
    -4.8371  -4.8100  -4.6463  -4.6218  -4.5983  -4.5677  -4.4480  -4.3628
    -4.1768  -4.1348  -4.1161  -4.0971  -3.9847  -3.9685  -3.8898  -3.8427
    -3.7776  -3.7619  -3.7499  -3.7050  -3.2220  -3.2048  -3.1125  -3.0827
    -2.9472  -2.8557  -2.8250  -2.7729  -2.6874  -2.6117  -2.5820  -2.5122
    -2.1188  -2.1128  -2.0901  -2.0730  -1.9494  -1.9470  -1.8556  -1.8519
    -1.2736  -1.2665  -1.2506  -1.2439  -0.7571  -0.7235  -0.6669  -0.6228
    -0.4296  -0.4239  -0.2550  -0.2463  -0.1677  -0.1437  -0.1156  -0.1027
    -0.0786  -0.0486  -0.0306  -0.0041   0.0563   0.1239   0.1508   0.1941

          k = 0.3333 0.3868 0.0000 ( 69914 PWs)   bands (ev):

   -21.5340 -21.5333 -21.5155 -21.5152 -20.2914 -20.2796 -20.2448 -20.2339
   -19.0277 -19.0272 -19.0028 -19.0028 -17.2160 -17.2122 -17.1474 -17.1424
   -15.1461 -15.1413 -15.0977 -15.0969 -12.9839 -12.9646 -12.9079 -12.8949
   -12.2301 -12.2274 -12.1856 -12.1693 -12.0487 -12.0379 -12.0218 -12.0080
    -9.9799  -9.9580  -9.6368  -9.6275  -9.0020  -8.9602  -8.7805  -8.7692
    -8.6375  -8.5794  -8.4928  -8.4764  -8.4570  -8.4162  -8.3946  -8.3457
    -7.2345  -7.2106  -7.0397  -7.0342  -6.2692  -6.2599  -6.1856  -6.1674
    -6.0052  -5.9808  -5.8424  -5.8217  -5.7935  -5.7679  -5.7062  -5.6930
    -5.2699  -5.2298  -5.1932  -5.1338  -5.1050  -5.0913  -4.9710  -4.9635
    -4.7662  -4.7331  -4.6543  -4.6315  -4.6156  -4.6065  -4.5170  -4.4381
    -4.1916  -4.1509  -4.1119  -4.1068  -3.9714  -3.9323  -3.9080  -3.8675
    -3.8001  -3.7816  -3.7459  -3.7146  -3.2274  -3.2086  -3.1675  -3.1549
    -2.8965  -2.8658  -2.8082  -2.7694  -2.6699  -2.6286  -2.5314  -2.4709
    -2.1116  -2.1024  -2.0905  -2.0717  -1.9191  -1.9123  -1.8605  -1.8513
    -1.2857  -1.2822  -1.2539  -1.2528  -0.7555  -0.7445  -0.6331  -0.5966
    -0.4202  -0.3944  -0.3260  -0.2957  -0.1828  -0.1613  -0.1075  -0.0946
    -0.0834  -0.0582  -0.0261  -0.0178   0.0293   0.0868   0.2114   0.2283

          k = 0.3333 0.3868 0.3974 ( 69942 PWs)   bands (ev):

   -21.5294 -21.5288 -21.5202 -21.5198 -20.2828 -20.2745 -20.2503 -20.2424
   -19.0214 -19.0208 -19.0089 -19.0086 -17.2150 -17.2131 -17.1464 -17.1439
   -15.1351 -15.1309 -15.1098 -15.1070 -12.9647 -12.9475 -12.9256 -12.9115
   -12.2185 -12.2149 -12.1902 -12.1791 -12.0449 -12.0378 -12.0289 -12.0207
    -9.9095  -9.8885  -9.7416  -9.7247  -8.9229  -8.8912  -8.8097  -8.7921
    -8.6264  -8.5912  -8.5116  -8.4910  -8.4445  -8.4183  -8.3841  -8.3604
    -7.1893  -7.1709  -7.0879  -7.0825  -6.2482  -6.2390  -6.2021  -6.1910
    -5.9671  -5.9461  -5.8709  -5.8473  -5.7811  -5.7628  -5.7175  -5.7024
    -5.2616  -5.2385  -5.2150  -5.1826  -5.0793  -5.0549  -5.0194  -4.9872
    -4.7693  -4.7411  -4.6774  -4.6487  -4.5782  -4.5479  -4.4798  -4.4219
    -4.1706  -4.1458  -4.1236  -4.1023  -3.9597  -3.9466  -3.9009  -3.8721
    -3.7916  -3.7813  -3.7520  -3.7290  -3.2289  -3.2096  -3.1699  -3.1587
    -2.9054  -2.8698  -2.7999  -2.7761  -2.6479  -2.6124  -2.5575  -2.5195
    -2.1137  -2.1061  -2.0983  -2.0853  -1.9118  -1.9067  -1.8628  -1.8564
    -1.2797  -1.2739  -1.2639  -1.2590  -0.7248  -0.7033  -0.6448  -0.6171
    -0.4111  -0.3977  -0.3204  -0.3038  -0.1691  -0.1518  -0.1201  -0.1145
    -0.0629  -0.0476  -0.0310  -0.0106   0.0737   0.0977   0.1753   0.1917

     highest occupied level (ev):     0.2661

* XDM dispersion
  a1 =     0.337000
  a2 (ang) =     2.488000
  a2 (bohr) =     4.701639
 
+ Volumes and moments
# All results in atomic units (Hartree,bohr)
# i        V             Vfree           M1             M2             M3
  1   3.202495E+01   3.894986E+01   3.662098E+00   4.989557E+01   9.256773E+02
  2   3.194136E+01   3.894986E+01   3.698571E+00   4.937899E+01   8.961066E+02
  3   3.228222E+01   3.894986E+01   3.604759E+00   4.804432E+01   8.863303E+02
  4   3.277832E+01   3.894986E+01   3.623662E+00   4.768085E+01   8.763816E+02
  5   3.238849E+01   3.894986E+01   3.944784E+00   5.061174E+01   8.869798E+02
  6   3.224734E+01   3.894986E+01   4.007189E+00   5.165218E+01   9.044907E+02
  7   3.221933E+01   3.894986E+01   4.013693E+00   5.187260E+01   9.120168E+02
  8   3.217266E+01   3.894986E+01   4.037308E+00   5.194189E+01   9.089726E+02
  9   3.238456E+01   3.894986E+01   3.955116E+00   5.057417E+01   8.909946E+02
 10   8.336157E+00   1.106712E+01   1.465299E+00   1.511166E+01   2.947581E+02
 11   8.071582E+00   1.106712E+01   1.500485E+00   1.400153E+01   2.804380E+02
 12   8.335138E+00   1.106712E+01   1.526354E+00   1.431103E+01   2.861753E+02
 13   8.375540E+00   1.106712E+01   1.394309E+00   1.402484E+01   2.830663E+02
 14   8.197254E+00   1.106712E+01   1.592911E+00   1.452997E+01   2.810631E+02
 15   8.200937E+00   1.106712E+01   1.610950E+00   1.487522E+01   2.870232E+02
 16   8.075249E+00   1.106712E+01   1.602846E+00   1.495089E+01   2.917180E+02
 17   7.938060E+00   1.106712E+01   1.620004E+00   1.495317E+01   2.911473E+02
 18   8.327663E+00   1.106712E+01   1.532954E+00   1.438616E+01   2.854225E+02
 19   2.544565E+01   3.002596E+01   3.719311E+00   3.658883E+01   5.019125E+02
 20   2.045755E+01   2.386633E+01   4.249564E+00   3.162180E+01   3.171982E+02
 21   2.132696E+01   2.386633E+01   4.697092E+00   3.428811E+01   3.279052E+02
 22   2.100372E+01   2.386633E+01   4.341362E+00   3.181134E+01   3.124133E+02
 23   2.103667E+01   2.386633E+01   4.341362E+00   3.181134E+01   3.124133E+02
 24   2.135239E+01   2.386633E+01   4.697092E+00   3.428811E+01   3.279052E+02
 25   2.045884E+01   2.386633E+01   4.249564E+00   3.162180E+01   3.171982E+02
 26   2.556602E+01   3.002596E+01   3.719311E+00   3.658883E+01   5.019125E+02
 27   8.347978E+00   1.106712E+01   1.532954E+00   1.438616E+01   2.854225E+02
 28   7.960473E+00   1.106712E+01   1.620004E+00   1.495317E+01   2.911473E+02
 29   8.126807E+00   1.106712E+01   1.602846E+00   1.495089E+01   2.917180E+02
 30   8.256795E+00   1.106712E+01   1.610950E+00   1.487522E+01   2.870232E+02
 31   8.259666E+00   1.106712E+01   1.592911E+00   1.452997E+01   2.810631E+02
 32   8.395180E+00   1.106712E+01   1.394309E+00   1.402484E+01   2.830663E+02
 33   8.342618E+00   1.106712E+01   1.526354E+00   1.431103E+01   2.861753E+02
 34   8.076280E+00   1.106712E+01   1.500485E+00   1.400153E+01   2.804380E+02
 35   8.331926E+00   1.106712E+01   1.465299E+00   1.511166E+01   2.947581E+02
 36   3.259742E+01   3.894986E+01   3.955116E+00   5.057417E+01   8.909946E+02
 37   3.237008E+01   3.894986E+01   4.037308E+00   5.194189E+01   9.089726E+02
 38   3.248431E+01   3.894986E+01   4.013693E+00   5.187260E+01   9.120168E+02
 39   3.258613E+01   3.894986E+01   4.007189E+00   5.165218E+01   9.044907E+02
 40   3.274027E+01   3.894986E+01   3.944784E+00   5.061174E+01   8.869798E+02
 41   3.311960E+01   3.894986E+01   3.623662E+00   4.768085E+01   8.763816E+02
 42   3.250263E+01   3.894986E+01   3.604759E+00   4.804432E+01   8.863303E+02
 43   3.196818E+01   3.894986E+01   3.698571E+00   4.937899E+01   8.961066E+02
 44   3.203920E+01   3.894986E+01   3.662098E+00   4.989557E+01   9.256773E+02
 45   2.100342E+01   2.386633E+01   4.341362E+00   3.181134E+01   3.124133E+02
 46   2.135193E+01   2.386633E+01   4.697092E+00   3.428811E+01   3.279052E+02
 47   2.045810E+01   2.386633E+01   4.249564E+00   3.162180E+01   3.171982E+02
 48   2.544722E+01   3.002596E+01   3.719311E+00   3.658883E+01   5.019125E+02
 49   8.325782E+00   1.106712E+01   1.532954E+00   1.438616E+01   2.854225E+02
 50   7.937003E+00   1.106712E+01   1.620004E+00   1.495317E+01   2.911473E+02
 51   8.077580E+00   1.106712E+01   1.602846E+00   1.495089E+01   2.917180E+02
 52   8.198165E+00   1.106712E+01   1.610950E+00   1.487522E+01   2.870232E+02
 53   8.194979E+00   1.106712E+01   1.592911E+00   1.452997E+01   2.810631E+02
 54   8.376734E+00   1.106712E+01   1.394309E+00   1.402484E+01   2.830663E+02
 55   8.339307E+00   1.106712E+01   1.526354E+00   1.431103E+01   2.861753E+02
 56   8.076965E+00   1.106712E+01   1.500485E+00   1.400153E+01   2.804380E+02
 57   8.331655E+00   1.106712E+01   1.465299E+00   1.511166E+01   2.947581E+02
 58   3.238177E+01   3.894986E+01   3.955116E+00   5.057417E+01   8.909946E+02
 59   3.217172E+01   3.894986E+01   4.037308E+00   5.194189E+01   9.089726E+02
 60   3.222147E+01   3.894986E+01   4.013693E+00   5.187260E+01   9.120168E+02
 61   3.224645E+01   3.894986E+01   4.007189E+00   5.165218E+01   9.044907E+02
 62   3.238578E+01   3.894986E+01   3.944784E+00   5.061174E+01   8.869798E+02
 63   3.277689E+01   3.894986E+01   3.623662E+00   4.768085E+01   8.763816E+02
 64   3.228267E+01   3.894986E+01   3.604759E+00   4.804432E+01   8.863303E+02
 65   3.194663E+01   3.894986E+01   3.698571E+00   4.937899E+01   8.961066E+02
 66   3.203186E+01   3.894986E+01   3.662098E+00   4.989557E+01   9.256773E+02
 67   2.100417E+01   2.386633E+01   4.341362E+00   3.181134E+01   3.124133E+02
 68   2.141950E+01   2.386633E+01   4.697092E+00   3.428811E+01   3.279052E+02
 69   2.046998E+01   2.386633E+01   4.249564E+00   3.162180E+01   3.171982E+02
 70   2.545450E+01   3.002596E+01   3.719311E+00   3.658883E+01   5.019125E+02
 71   8.326246E+00   1.106712E+01   1.532954E+00   1.438616E+01   2.854225E+02
 72   7.937660E+00   1.106712E+01   1.620004E+00   1.495317E+01   2.911473E+02
 73   8.076129E+00   1.106712E+01   1.602846E+00   1.495089E+01   2.917180E+02
 74   8.197228E+00   1.106712E+01   1.610950E+00   1.487522E+01   2.870232E+02
 75   8.195300E+00   1.106712E+01   1.592911E+00   1.452997E+01   2.810631E+02
 76   8.381494E+00   1.106712E+01   1.394309E+00   1.402484E+01   2.830663E+02
 77   8.346402E+00   1.106712E+01   1.526354E+00   1.431103E+01   2.861753E+02
 78   8.088392E+00   1.106712E+01   1.500485E+00   1.400153E+01   2.804380E+02
 79   8.351597E+00   1.106712E+01   1.465299E+00   1.511166E+01   2.947581E+02
 80   3.237962E+01   3.894986E+01   3.955116E+00   5.057417E+01   8.909946E+02
 81   3.217043E+01   3.894986E+01   4.037308E+00   5.194189E+01   9.089726E+02
 82   3.221895E+01   3.894986E+01   4.013693E+00   5.187260E+01   9.120168E+02
 83   3.224488E+01   3.894986E+01   4.007189E+00   5.165218E+01   9.044907E+02
 84   3.238640E+01   3.894986E+01   3.944784E+00   5.061174E+01   8.869798E+02
 85   3.277640E+01   3.894986E+01   3.623662E+00   4.768085E+01   8.763816E+02
 86   3.228420E+01   3.894986E+01   3.604759E+00   4.804432E+01   8.863303E+02
 87   3.204507E+01   3.894986E+01   3.698571E+00   4.937899E+01   8.961066E+02
 88   3.215585E+01   3.894986E+01   3.662098E+00   4.989557E+01   9.256773E+02
 
+ Dispersion coefficients
# All results in atomic units (Hartree,bohr).
# i   j      C6             C8             C10            Rc            Rvdw
  1   1   1.788100E+01   7.308784E+02   3.202066E+04   6.505837E+00   6.894106E+00
  2   1   1.794600E+01   7.261587E+02   3.147922E+04   6.472276E+00   6.882796E+00
  2   2   1.801195E+01   7.214234E+02   3.094031E+04   6.438479E+00   6.871406E+00
  3   1   1.781032E+01   7.200592E+02   3.134596E+04   6.477792E+00   6.884654E+00
  3   2   1.787373E+01   7.152761E+02   3.080848E+04   6.444106E+00   6.873302E+00
  3   3   1.774242E+01   7.094144E+02   3.068701E+04   6.449728E+00   6.875197E+00
  4   1   1.799234E+01   7.228349E+02   3.134652E+04   6.461425E+00   6.879139E+00
  4   2   1.805584E+01   7.179641E+02   3.080497E+04   6.427663E+00   6.867761E+00
  4   3   1.792482E+01   7.121412E+02   3.068767E+04   6.433347E+00   6.869677E+00
  4   4   1.810955E+01   7.148671E+02   3.068807E+04   6.416957E+00   6.864153E+00
  5   1   1.865407E+01   7.402375E+02   3.151482E+04   6.411802E+00   6.862416E+00
  5   2   1.872558E+01   7.353781E+02   3.096634E+04   6.377606E+00   6.850892E+00
  5   3   1.857337E+01   7.287653E+02   3.082529E+04   6.383445E+00   6.852860E+00
  5   4   1.876023E+01   7.313182E+02   3.081259E+04   6.366887E+00   6.847280E+00
  5   5   1.947993E+01   7.497848E+02   3.098783E+04   6.316068E+00   6.830153E+00
  6   1   1.875315E+01   7.458525E+02   3.177900E+04   6.416665E+00   6.864055E+00
  6   2   1.882622E+01   7.410203E+02   3.122864E+04   6.382482E+00   6.852535E+00
  6   3   1.866980E+01   7.342247E+02   3.108029E+04   6.388300E+00   6.854496E+00
  6   4   1.885669E+01   7.367707E+02   3.106612E+04   6.371738E+00   6.848914E+00
  6   5   1.958959E+01   7.557640E+02   3.125946E+04   6.320958E+00   6.831801E+00
  6   6   1.970185E+01   7.618635E+02   3.153663E+04   6.325852E+00   6.833451E+00
  7   1   1.875923E+01   7.470517E+02   3.188245E+04   6.421367E+00   6.865639E+00
  7   2   1.883247E+01   7.422274E+02   3.133178E+04   6.387223E+00   6.854133E+00
  7   3   1.867558E+01   7.354049E+02   3.118184E+04   6.393025E+00   6.856088E+00
  7   4   1.886240E+01   7.379567E+02   3.116794E+04   6.376477E+00   6.850511E+00
  7   5   1.959671E+01   7.570388E+02   3.136590E+04   6.325764E+00   6.833421E+00
  7   6   1.970925E+01   7.631557E+02   3.164428E+04   6.330656E+00   6.835070E+00
  7   7   1.971669E+01   7.644500E+02   3.175216E+04   6.335454E+00   6.836686E+00
  8   1   1.879764E+01   7.469336E+02   3.180655E+04   6.414262E+00   6.863245E+00
  8   2   1.887146E+01   7.421100E+02   3.125619E+04   6.380067E+00   6.851721E+00
  8   3   1.871300E+01   7.352385E+02   3.110516E+04   6.385894E+00   6.853685E+00
  8   4   1.889986E+01   7.377655E+02   3.109006E+04   6.369330E+00   6.848103E+00
  8   5   1.963909E+01   7.569549E+02   3.129008E+04   6.318524E+00   6.830981E+00
  8   6   1.975261E+01   7.631031E+02   3.156911E+04   6.323418E+00   6.832630E+00
  8   7   1.976015E+01   7.644031E+02   3.167715E+04   6.328224E+00   6.834250E+00
  8   8   1.980397E+01   7.643625E+02   3.160236E+04   6.320983E+00   6.831810E+00
  9   1   1.867653E+01   7.399235E+02   3.152276E+04   6.410321E+00   6.861917E+00
  9   2   1.874828E+01   7.350599E+02   3.097470E+04   6.376149E+00   6.850401E+00
  9   3   1.859543E+01   7.284308E+02   3.083302E+04   6.382000E+00   6.852373E+00
  9   4   1.878238E+01   7.309696E+02   3.082039E+04   6.365462E+00   6.846799E+00
  9   5   1.950422E+01   7.494613E+02   3.099794E+04   6.314662E+00   6.829680E+00
  9   6   1.961429E+01   7.554512E+02   3.126997E+04   6.319543E+00   6.831325E+00
  9   7   1.962145E+01   7.567284E+02   3.137647E+04   6.324348E+00   6.832944E+00
  9   8   1.966398E+01   7.566455E+02   3.130086E+04   6.317113E+00   6.830506E+00
  9   9   1.952858E+01   7.491372E+02   3.100825E+04   6.313264E+00   6.829209E+00
 10   1   6.646740E+00   2.386634E+02   9.956948E+03   6.224193E+00   6.799192E+00
 10   2   6.673870E+00   2.368942E+02   9.778384E+03   6.189825E+00   6.787610E+00
 10   3   6.614882E+00   2.345742E+02   9.732961E+03   6.196606E+00   6.789895E+00
 10   4   6.680114E+00   2.351857E+02   9.725986E+03   6.180474E+00   6.784458E+00
 10   5   6.949660E+00   2.412547E+02   9.783350E+03   6.128434E+00   6.766921E+00
 10   6   6.991557E+00   2.433366E+02   9.872592E+03   6.133057E+00   6.768479E+00
 10   7   6.994442E+00   2.437940E+02   9.908088E+03   6.137939E+00   6.770124E+00
 10   8   7.010584E+00   2.437422E+02   9.884004E+03   6.130683E+00   6.767679E+00
 10   9   6.958703E+00   2.411196E+02   9.789067E+03   6.127458E+00   6.766592E+00
 10  10   2.483246E+00   7.682934E+01   3.107390E+03   5.956529E+00   6.708989E+00
 11   1   6.602764E+00   2.273615E+02   9.331830E+03   6.135348E+00   6.769251E+00
 11   2   6.630869E+00   2.256037E+02   9.161249E+03   6.100693E+00   6.757572E+00
 11   3   6.568949E+00   2.232723E+02   9.117037E+03   6.107929E+00   6.760011E+00
 11   4   6.632807E+00   2.237531E+02   9.108083E+03   6.091884E+00   6.754604E+00
 11   5   6.909747E+00   2.296943E+02   9.164563E+03   6.038983E+00   6.736776E+00
 11   6   6.953351E+00   2.317679E+02   9.250777E+03   6.043518E+00   6.738304E+00
 11   7   6.956462E+00   2.322266E+02   9.285192E+03   6.048464E+00   6.739971E+00
 11   8   6.973229E+00   2.321752E+02   9.262552E+03   6.041155E+00   6.737508E+00
 11   9   6.919002E+00   2.295555E+02   9.171093E+03   6.038189E+00   6.736508E+00
 11  10   2.471717E+00   7.283295E+01   2.917364E+03   5.872870E+00   6.680796E+00
 11  11   2.462170E+00   6.892600E+01   2.741141E+03   5.791193E+00   6.653271E+00
 12   1   6.772127E+00   2.336467E+02   9.596492E+03   6.139342E+00   6.770597E+00
 12   2   6.800635E+00   2.318349E+02   9.420855E+03   6.104700E+00   6.758922E+00
 12   3   6.738040E+00   2.294705E+02   9.376516E+03   6.111914E+00   6.761354E+00
 12   4   6.803795E+00   2.299767E+02   9.367705E+03   6.095865E+00   6.755945E+00
 12   5   7.085314E+00   2.360047E+02   9.422836E+03   6.043001E+00   6.738130E+00
 12   6   7.129490E+00   2.381161E+02   9.510766E+03   6.047541E+00   6.739660E+00
 12   7   7.132613E+00   2.385844E+02   9.546020E+03   6.052484E+00   6.741326E+00
 12   8   7.149609E+00   2.385263E+02   9.522530E+03   6.045177E+00   6.738863E+00
 12   9   7.094731E+00   2.358606E+02   9.429412E+03   6.042198E+00   6.737859E+00
 12  10   2.533767E+00   7.483096E+01   2.998496E+03   5.876599E+00   6.682052E+00
 12  11   2.523450E+00   7.081037E+01   2.816761E+03   5.794819E+00   6.654493E+00
 12  12   2.586401E+00   7.274995E+01   2.894632E+03   5.798452E+00   6.655717E+00
 13   1   6.509187E+00   2.312405E+02   9.680304E+03   6.213471E+00   6.795578E+00
 13   2   6.534647E+00   2.294589E+02   9.505447E+03   6.179236E+00   6.784041E+00
 13   3   6.480076E+00   2.273210E+02   9.466393E+03   6.186104E+00   6.786356E+00
 13   4   6.544865E+00   2.279265E+02   9.461356E+03   6.170099E+00   6.780962E+00
 13   5   6.800017E+00   2.334651E+02   9.504724E+03   6.118149E+00   6.763455E+00
 13   6   6.839147E+00   2.354224E+02   9.588584E+03   6.122716E+00   6.764994E+00
 13   7   6.841738E+00   2.358608E+02   9.622703E+03   6.127585E+00   6.766635E+00
 13   8   6.856846E+00   2.357806E+02   9.598459E+03   6.120361E+00   6.764200E+00
 13   9   6.808612E+00   2.333209E+02   9.510189E+03   6.117231E+00   6.763145E+00
 13  10   2.427164E+00   7.416803E+01   3.019479E+03   5.949119E+00   6.706492E+00
 13  11   2.414059E+00   7.021280E+01   2.834206E+03   5.866679E+00   6.678710E+00
 13  12   2.475167E+00   7.215580E+01   2.913542E+03   5.870349E+00   6.679946E+00
 13  13   2.374102E+00   7.164067E+01   2.936769E+03   5.942119E+00   6.704133E+00
 14   1   6.839186E+00   2.333514E+02   9.440935E+03   6.099093E+00   6.757033E+00
 14   2   6.869239E+00   2.315532E+02   9.266218E+03   6.064077E+00   6.745233E+00
 14   3   6.802391E+00   2.290671E+02   9.218986E+03   6.071456E+00   6.747719E+00
 14   4   6.867767E+00   2.295191E+02   9.207576E+03   6.055280E+00   6.742268E+00
 14   5   7.162119E+00   2.358309E+02   9.268645E+03   6.001737E+00   6.724224E+00
 14   6   7.208909E+00   2.380186E+02   9.358241E+03   6.006300E+00   6.725762E+00
 14   7   7.212333E+00   2.384998E+02   9.393858E+03   6.011304E+00   6.727448E+00
 14   8   7.230301E+00   2.384602E+02   9.370953E+03   6.003917E+00   6.724959E+00
 14   9   7.171929E+00   2.356911E+02   9.275655E+03   6.000966E+00   6.723964E+00
 14  10   2.564234E+00   7.475257E+01   2.949669E+03   5.834891E+00   6.667997E+00
 14  11   2.555914E+00   7.074633E+01   2.771072E+03   5.752616E+00   6.640270E+00
 14  12   2.619090E+00   7.267033E+01   2.847141E+03   5.756269E+00   6.641501E+00
 14  13   2.502914E+00   7.200987E+01   2.864031E+03   5.828829E+00   6.665954E+00
 14  14   2.654530E+00   7.264102E+01   2.801174E+03   5.713496E+00   6.627087E+00
 15   1   6.874762E+00   2.357220E+02   9.557878E+03   6.109846E+00   6.760657E+00
 15   2   6.905202E+00   2.339273E+02   9.381971E+03   6.074873E+00   6.748871E+00
 15   3   6.837343E+00   2.313946E+02   9.332863E+03   6.082195E+00   6.751338E+00
 15   4   6.902872E+00   2.318538E+02   9.321233E+03   6.066012E+00   6.745885E+00
 15   5   7.200588E+00   2.383091E+02   9.386779E+03   6.012586E+00   6.727880E+00
 15   6   7.248019E+00   2.405295E+02   9.478018E+03   6.017159E+00   6.729421E+00
 15   7   7.251510E+00   2.410154E+02   9.514041E+03   6.022153E+00   6.731104E+00
 15   8   7.269718E+00   2.409835E+02   9.491170E+03   6.014775E+00   6.728618E+00
 15   9   7.210503E+00   2.381720E+02   9.393844E+03   6.011793E+00   6.727613E+00
 15  10   2.578556E+00   7.560393E+01   2.987562E+03   5.845081E+00   6.671431E+00
 15  11   2.570577E+00   7.158473E+01   2.807134E+03   5.762587E+00   6.643631E+00
 15  12   2.634009E+00   7.352747E+01   2.884076E+03   5.766251E+00   6.644865E+00
 15  13   2.516525E+00   7.282489E+01   2.900208E+03   5.838872E+00   6.669339E+00
 15  14   2.670079E+00   7.351579E+01   2.838263E+03   5.723551E+00   6.630475E+00
 15  15   2.685797E+00   7.440048E+01   2.875916E+03   5.733628E+00   6.633871E+00
 16   1   6.800148E+00   2.341214E+02   9.542769E+03   6.124164E+00   6.765482E+00
 16   2   6.830477E+00   2.323579E+02   9.368727E+03   6.089319E+00   6.753739E+00
 16   3   6.762726E+00   2.298218E+02   9.318357E+03   6.096582E+00   6.756187E+00
 16   4   6.827365E+00   2.302792E+02   9.306997E+03   6.080441E+00   6.750747E+00
 16   5   7.123592E+00   2.367642E+02   9.377014E+03   6.027252E+00   6.732823E+00
 16   6   7.170887E+00   2.389798E+02   9.468533E+03   6.031818E+00   6.734361E+00
 16   7   7.174387E+00   2.394626E+02   9.504374E+03   6.036791E+00   6.736037E+00
 16   8   7.192537E+00   2.394380E+02   9.481989E+03   6.029440E+00   6.733560E+00
 16   9   7.133451E+00   2.366316E+02   9.384073E+03   6.026447E+00   6.732551E+00
 16  10   2.551505E+00   7.517015E+01   2.986142E+03   5.859850E+00   6.676408E+00
 16  11   2.543979E+00   7.120234E+01   2.806937E+03   5.777509E+00   6.648659E+00
 16  12   2.606653E+00   7.313097E+01   2.883728E+03   5.781167E+00   6.649892E+00
 16  13   2.489774E+00   7.240144E+01   2.898327E+03   5.853568E+00   6.674291E+00
 16  14   2.642756E+00   7.313572E+01   2.838969E+03   5.738670E+00   6.635571E+00
 16  15   2.658388E+00   7.401563E+01   2.876610E+03   5.748726E+00   6.638959E+00
 16  16   2.631330E+00   7.363288E+01   2.877166E+03   5.763752E+00   6.644023E+00
 17   1   6.765153E+00   2.319283E+02   9.425113E+03   6.113133E+00   6.761765E+00
 17   2   6.795906E+00   2.301892E+02   9.253213E+03   6.078222E+00   6.750000E+00
 17   3   6.726834E+00   2.276195E+02   9.201561E+03   6.085537E+00   6.752465E+00
 17   4   6.790669E+00   2.280496E+02   9.189464E+03   6.069387E+00   6.747022E+00
 17   5   7.089990E+00   2.346117E+02   9.263250E+03   6.016053E+00   6.729049E+00
 17   6   7.138046E+00   2.368427E+02   9.354991E+03   6.020615E+00   6.730586E+00
 17   7   7.141652E+00   2.373268E+02   9.390695E+03   6.025601E+00   6.732266E+00
 17   8   7.160081E+00   2.373117E+02   9.368878E+03   6.018236E+00   6.729784E+00
 17   9   7.099936E+00   2.344827E+02   9.270478E+03   6.015265E+00   6.728783E+00
 17  10   2.540855E+00   7.448526E+01   2.951375E+03   5.849008E+00   6.672754E+00
 17  11   2.534343E+00   7.056245E+01   2.775076E+03   5.766748E+00   6.645033E+00
 17  12   2.596509E+00   7.246710E+01   2.850709E+03   5.770401E+00   6.646264E+00
 17  13   2.478452E+00   7.171017E+01   2.863650E+03   5.842836E+00   6.670674E+00
 17  14   2.633556E+00   7.249643E+01   2.807252E+03   5.727796E+00   6.631906E+00
 17  15   2.649333E+00   7.337651E+01   2.844725E+03   5.737844E+00   6.635292E+00
 17  16   2.622556E+00   7.300427E+01   2.845609E+03   5.752907E+00   6.640368E+00
 17  17   2.614316E+00   7.239301E+01   2.814877E+03   5.742054E+00   6.636711E+00
 18   1   6.782070E+00   2.340777E+02   9.596328E+03   6.136965E+00   6.769796E+00
 18   2   6.810731E+00   2.322673E+02   9.420458E+03   6.102270E+00   6.758104E+00
 18   3   6.747727E+00   2.298879E+02   9.375740E+03   6.109488E+00   6.760536E+00
 18   4   6.813488E+00   2.303926E+02   9.366614E+03   6.093409E+00   6.755118E+00
 18   5   7.096297E+00   2.364625E+02   9.422322E+03   6.040472E+00   6.737278E+00
 18   6   7.140727E+00   2.385840E+02   9.510558E+03   6.045021E+00   6.738811E+00
 18   7   7.143879E+00   2.390539E+02   9.545900E+03   6.049971E+00   6.740479E+00
 18   8   7.160969E+00   2.389982E+02   9.522412E+03   6.042653E+00   6.738013E+00
 18   9   7.105754E+00   2.363192E+02   9.428910E+03   6.039663E+00   6.737005E+00
 18  10   2.537956E+00   7.498757E+01   2.997813E+03   5.873633E+00   6.681053E+00
 18  11   2.527806E+00   7.096537E+01   2.815916E+03   5.791640E+00   6.653421E+00
 18  12   2.590815E+00   7.290770E+01   2.893727E+03   5.795282E+00   6.654649E+00
 18  13   2.479084E+00   7.230211E+01   2.912621E+03   5.867344E+00   6.678934E+00
 18  14   2.623763E+00   7.283399E+01   2.846277E+03   5.753019E+00   6.640406E+00
 18  15   2.638745E+00   7.369389E+01   2.883295E+03   5.763029E+00   6.643779E+00
 18  16   2.611376E+00   7.329732E+01   2.883056E+03   5.777973E+00   6.648816E+00
 18  17   2.601307E+00   7.263474E+01   2.850094E+03   5.767182E+00   6.645179E+00
 18  18   2.595254E+00   7.306626E+01   2.892831E+03   5.792111E+00   6.653580E+00
 19   1   1.409643E+01   4.961040E+02   1.886648E+04   6.049225E+00   6.740228E+00
 19   2   1.416753E+01   4.927827E+02   1.850406E+04   6.012377E+00   6.727810E+00
 19   3   1.400345E+01   4.865965E+02   1.837720E+04   6.019686E+00   6.730273E+00
 19   4   1.413077E+01   4.874210E+02   1.833129E+04   6.002393E+00   6.724445E+00
 19   5   1.481036E+01   5.035725E+02   1.850851E+04   5.946429E+00   6.705585E+00
 19   6   1.492272E+01   5.087322E+02   1.871173E+04   5.951393E+00   6.707258E+00
 19   7   1.493175E+01   5.098021E+02   1.878912E+04   5.956646E+00   6.709028E+00
 19   8   1.497467E+01   5.099551E+02   1.874459E+04   5.948842E+00   6.706398E+00
 19   9   1.483276E+01   5.033770E+02   1.852283E+04   5.945393E+00   6.705236E+00
 19  10   5.324524E+00   1.609381E+02   5.848048E+03   5.760886E+00   6.643057E+00
 19  11   5.322930E+00   1.530518E+02   5.478575E+03   5.669742E+00   6.612342E+00
 19  12   5.450172E+00   1.570752E+02   5.626030E+03   5.673817E+00   6.613715E+00
 19  13   5.182404E+00   1.546649E+02   5.656725E+03   5.752843E+00   6.640347E+00
 19  14   5.541289E+00   1.575874E+02   5.539473E+03   5.628215E+00   6.598347E+00
 19  15   5.576942E+00   1.595397E+02   5.620191E+03   5.639372E+00   6.602107E+00
 19  16   5.522919E+00   1.587721E+02   5.629480E+03   5.655524E+00   6.607550E+00
 19  17   5.511812E+00   1.576477E+02   5.570849E+03   5.643666E+00   6.603554E+00
 19  18   5.461398E+00   1.574695E+02   5.625388E+03   5.670581E+00   6.612624E+00
 19  19   1.169873E+01   3.452596E+02   1.106997E+04   5.547076E+00   6.571003E+00
 20   1   1.205422E+01   3.809021E+02   1.302636E+04   5.734262E+00   6.634085E+00
 20   2   1.212987E+01   3.783066E+02   1.274979E+04   5.694638E+00   6.620732E+00
 20   3   1.194704E+01   3.721958E+02   1.263496E+04   5.703548E+00   6.623734E+00
 20   4   1.204398E+01   3.721479E+02   1.257654E+04   5.685522E+00   6.617659E+00
 20   5   1.274373E+01   3.874965E+02   1.274321E+04   5.624076E+00   6.596952E+00
 20   6   1.286615E+01   3.923739E+02   1.291204E+04   5.629099E+00   6.598645E+00
 20   7   1.287715E+01   3.933665E+02   1.297564E+04   5.634827E+00   6.600575E+00
 20   8   1.292365E+01   3.936542E+02   1.294505E+04   5.626427E+00   6.597745E+00
 20   9   1.276648E+01   3.873646E+02   1.275972E+04   5.623459E+00   6.596744E+00
 20  10   4.618189E+00   1.229885E+02   4.035909E+03   5.442041E+00   6.535606E+00
 20  11   4.643363E+00   1.168213E+02   3.783011E+03   5.349677E+00   6.504480E+00
 20  12   4.747005E+00   1.197466E+02   3.879682E+03   5.353781E+00   6.505863E+00
 20  13   4.470302E+00   1.173442E+02   3.887726E+03   5.436632E+00   6.533784E+00
 20  14   4.856104E+00   1.206462E+02   3.822997E+03   5.303522E+00   6.488926E+00
 20  15   4.892862E+00   1.223827E+02   3.885958E+03   5.314944E+00   6.492775E+00
 20  16   4.850735E+00   1.220122E+02   3.903890E+03   5.332688E+00   6.498755E+00
 20  17   4.855108E+00   1.214130E+02   3.870496E+03   5.320164E+00   6.494534E+00
 20  18   4.759332E+00   1.201193E+02   3.878685E+03   5.349753E+00   6.504505E+00
 20  19   1.048628E+01   2.717841E+02   7.619670E+03   5.192596E+00   6.451543E+00
 20  20   9.857195E+00   2.200477E+02   5.235445E+03   4.801056E+00   6.319595E+00
 21   1   1.277742E+01   4.010459E+02   1.358106E+04   5.710509E+00   6.626080E+00
 21   2   1.285953E+01   3.983373E+02   1.329056E+04   5.670606E+00   6.612633E+00
 21   3   1.266024E+01   3.917310E+02   1.316672E+04   5.679641E+00   6.615678E+00
 21   4   1.276147E+01   3.916123E+02   1.310274E+04   5.661520E+00   6.609571E+00
 21   5   1.351858E+01   4.081916E+02   1.328443E+04   5.599559E+00   6.588690E+00
 21   6   1.365182E+01   4.134399E+02   1.346411E+04   5.604599E+00   6.590389E+00
 21   7   1.366390E+01   4.145033E+02   1.353153E+04   5.610373E+00   6.592334E+00
 21   8   1.371448E+01   4.148356E+02   1.349991E+04   5.601912E+00   6.589483E+00
 21   9   1.354317E+01   4.080602E+02   1.330232E+04   5.598966E+00   6.588490E+00
 21  10   4.903806E+00   1.295553E+02   4.208102E+03   5.417192E+00   6.527232E+00
 21  11   4.934054E+00   1.230888E+02   3.944826E+03   5.324436E+00   6.495974E+00
 21  12   5.043211E+00   1.261495E+02   4.044961E+03   5.328557E+00   6.497362E+00
 21  13   4.743554E+00   1.235114E+02   4.051201E+03   5.411930E+00   6.525459E+00
 21  14   5.163080E+00   1.271783E+02   3.986811E+03   5.277825E+00   6.480266E+00
 21  15   5.202896E+00   1.290345E+02   4.053390E+03   5.289305E+00   6.484135E+00
 21  16   5.158804E+00   1.286676E+02   4.073406E+03   5.307213E+00   6.490170E+00
 21  17   5.165350E+00   1.280763E+02   4.039600E+03   5.294602E+00   6.485920E+00
 21  18   5.056646E+00   1.265511E+02   4.043947E+03   5.324465E+00   6.495983E+00
 21  19   1.118117E+01   2.874240E+02   7.951251E+03   5.164589E+00   6.442105E+00
 21  20   1.057664E+01   2.338660E+02   5.468628E+03   4.768821E+00   6.308731E+00
 21  21   1.135830E+01   2.487420E+02   5.713798E+03   4.736129E+00   6.297714E+00
 22   1   1.235813E+01   3.883981E+02   1.320814E+04   5.718451E+00   6.628757E+00
 22   2   1.243553E+01   3.857191E+02   1.292514E+04   5.678672E+00   6.615351E+00
 22   3   1.224855E+01   3.795004E+02   1.281022E+04   5.687671E+00   6.618384E+00
 22   4   1.234807E+01   3.794381E+02   1.275029E+04   5.669603E+00   6.612295E+00
 22   5   1.306417E+01   3.950123E+02   1.291357E+04   5.607849E+00   6.591484E+00
 22   6   1.318940E+01   3.999826E+02   1.308455E+04   5.612875E+00   6.593178E+00
 22   7   1.320063E+01   4.009971E+02   1.314937E+04   5.618630E+00   6.595117E+00
 22   8   1.324819E+01   4.012807E+02   1.311773E+04   5.610197E+00   6.592275E+00
 22   9   1.308746E+01   3.948720E+02   1.293046E+04   5.607256E+00   6.591284E+00
 22  10   4.733913E+00   1.252631E+02   4.088353E+03   5.426006E+00   6.530203E+00
 22  11   4.759426E+00   1.189297E+02   3.830849E+03   5.333572E+00   6.499052E+00
 22  12   4.865739E+00   1.219120E+02   3.928855E+03   5.337678E+00   6.500436E+00
 22  13   4.582589E+00   1.195103E+02   3.938803E+03   5.420745E+00   6.528430E+00
 22  14   4.977240E+00   1.228070E+02   3.870001E+03   5.287155E+00   6.483410E+00
 22  15   5.014853E+00   1.245789E+02   3.933850E+03   5.298592E+00   6.487264E+00
 22  16   4.971617E+00   1.242050E+02   3.952382E+03   5.316427E+00   6.493274E+00
 22  17   4.975943E+00   1.235862E+02   3.918219E+03   5.303864E+00   6.489041E+00
 22  18   4.878347E+00   1.222912E+02   3.927666E+03   5.333605E+00   6.499064E+00
 22  19   1.074521E+01   2.766628E+02   7.699745E+03   5.174520E+00   6.445452E+00
 22  20   1.009518E+01   2.236389E+02   5.271860E+03   4.780764E+00   6.312756E+00
 22  21   1.083121E+01   2.376479E+02   5.504435E+03   4.748271E+00   6.301806E+00
 22  22   1.033898E+01   2.272767E+02   5.307575E+03   4.760337E+00   6.305872E+00
 23   1   1.237186E+01   3.888296E+02   1.322281E+04   5.718451E+00   6.628757E+00
 23   2   1.244929E+01   3.861460E+02   1.293945E+04   5.678672E+00   6.615351E+00
 23   3   1.226225E+01   3.799248E+02   1.282455E+04   5.687671E+00   6.618384E+00
 23   4   1.236192E+01   3.798637E+02   1.276459E+04   5.669603E+00   6.612295E+00
 23   5   1.307841E+01   3.954429E+02   1.292765E+04   5.607849E+00   6.591484E+00
 23   6   1.320368E+01   4.004159E+02   1.309873E+04   5.612875E+00   6.593178E+00
 23   7   1.321492E+01   4.014312E+02   1.316360E+04   5.618630E+00   6.595117E+00
 23   8   1.326250E+01   4.017142E+02   1.313190E+04   5.610197E+00   6.592275E+00
 23   9   1.310171E+01   3.953021E+02   1.294455E+04   5.607256E+00   6.591284E+00
 23  10   4.738947E+00   1.253963E+02   4.092701E+03   5.426006E+00   6.530203E+00
 23  11   4.764395E+00   1.190539E+02   3.834848E+03   5.333572E+00   6.499052E+00
 23  12   4.870845E+00   1.220399E+02   3.932977E+03   5.337678E+00   6.500436E+00
 23  13   4.587546E+00   1.196396E+02   3.943064E+03   5.420745E+00   6.528430E+00
 23  14   4.982358E+00   1.229333E+02   3.873981E+03   5.287155E+00   6.483410E+00
 23  15   5.019991E+00   1.247065E+02   3.937881E+03   5.298592E+00   6.487264E+00
 23  16   4.976693E+00   1.243318E+02   3.956417E+03   5.316427E+00   6.493274E+00
 23  17   4.980973E+00   1.237112E+02   3.922180E+03   5.303864E+00   6.489041E+00
 23  18   4.883457E+00   1.224192E+02   3.931780E+03   5.333605E+00   6.499064E+00
 23  19   1.075543E+01   2.769259E+02   7.707066E+03   5.174520E+00   6.445452E+00
 23  20   1.010307E+01   2.238137E+02   5.275981E+03   4.780764E+00   6.312756E+00
 23  21   1.083942E+01   2.378282E+02   5.508611E+03   4.748271E+00   6.301806E+00
 23  22   1.034708E+01   2.274548E+02   5.311734E+03   4.760337E+00   6.305872E+00
 23  23   1.035520E+01   2.276332E+02   5.315900E+03   4.760337E+00   6.305872E+00
 24   1   1.278841E+01   4.013907E+02   1.359274E+04   5.710509E+00   6.626080E+00
 24   2   1.287055E+01   3.986786E+02   1.330195E+04   5.670606E+00   6.612633E+00
 24   3   1.267120E+01   3.920701E+02   1.317812E+04   5.679641E+00   6.615678E+00
 24   4   1.277255E+01   3.919521E+02   1.311411E+04   5.661520E+00   6.609571E+00
 24   5   1.353000E+01   4.085363E+02   1.329565E+04   5.599559E+00   6.588690E+00
 24   6   1.366328E+01   4.137870E+02   1.347542E+04   5.604599E+00   6.590389E+00
 24   7   1.367537E+01   4.148511E+02   1.354289E+04   5.610373E+00   6.592334E+00
 24   8   1.372596E+01   4.151829E+02   1.351122E+04   5.601912E+00   6.589483E+00
 24   9   1.355460E+01   4.084045E+02   1.331355E+04   5.598966E+00   6.588490E+00
 24  10   4.907851E+00   1.296621E+02   4.211573E+03   5.417192E+00   6.527232E+00
 24  11   4.938052E+00   1.231885E+02   3.948023E+03   5.324436E+00   6.495974E+00
 24  12   5.047317E+00   1.262522E+02   4.048255E+03   5.328557E+00   6.497362E+00
 24  13   4.747531E+00   1.236150E+02   4.054597E+03   5.411930E+00   6.525459E+00
 24  14   5.167204E+00   1.272799E+02   3.989996E+03   5.277825E+00   6.480266E+00
 24  15   5.207037E+00   1.291372E+02   4.056616E+03   5.289305E+00   6.484135E+00
 24  16   5.162896E+00   1.287696E+02   4.076637E+03   5.307213E+00   6.490170E+00
 24  17   5.169409E+00   1.281770E+02   4.042774E+03   5.294602E+00   6.485920E+00
 24  18   5.060756E+00   1.266540E+02   4.047234E+03   5.324465E+00   6.495983E+00
 24  19   1.118945E+01   2.876370E+02   7.957141E+03   5.164589E+00   6.442105E+00
 24  20   1.058312E+01   2.340094E+02   5.471981E+03   4.768821E+00   6.308731E+00
 24  21   1.136507E+01   2.488902E+02   5.717202E+03   4.736129E+00   6.297714E+00
 24  22   1.083786E+01   2.377940E+02   5.507818E+03   4.748271E+00   6.301806E+00
 24  23   1.084609E+01   2.379745E+02   5.512000E+03   4.748271E+00   6.301806E+00
 24  24   1.137185E+01   2.490386E+02   5.720611E+03   4.736129E+00   6.297714E+00
 25   1   1.205476E+01   3.809191E+02   1.302694E+04   5.734262E+00   6.634085E+00
 25   2   1.213041E+01   3.783235E+02   1.275036E+04   5.694638E+00   6.620732E+00
 25   3   1.194758E+01   3.722126E+02   1.263553E+04   5.703548E+00   6.623734E+00
 25   4   1.204453E+01   3.721647E+02   1.257710E+04   5.685522E+00   6.617659E+00
 25   5   1.274429E+01   3.875135E+02   1.274377E+04   5.624076E+00   6.596952E+00
 25   6   1.286672E+01   3.923911E+02   1.291260E+04   5.629099E+00   6.598645E+00
 25   7   1.287771E+01   3.933837E+02   1.297621E+04   5.634827E+00   6.600575E+00
 25   8   1.292421E+01   3.936713E+02   1.294561E+04   5.626427E+00   6.597745E+00
 25   9   1.276704E+01   3.873816E+02   1.276028E+04   5.623459E+00   6.596744E+00
 25  10   4.618387E+00   1.229937E+02   4.036082E+03   5.442041E+00   6.535606E+00
 25  11   4.643558E+00   1.168263E+02   3.783170E+03   5.349677E+00   6.504480E+00
 25  12   4.747205E+00   1.197517E+02   3.879846E+03   5.353781E+00   6.505863E+00
 25  13   4.470497E+00   1.173493E+02   3.887895E+03   5.436632E+00   6.533784E+00
 25  14   4.856306E+00   1.206512E+02   3.823156E+03   5.303522E+00   6.488926E+00
 25  15   4.893064E+00   1.223878E+02   3.886118E+03   5.314944E+00   6.492775E+00
 25  16   4.850934E+00   1.220172E+02   3.904051E+03   5.332688E+00   6.498755E+00
 25  17   4.855306E+00   1.214180E+02   3.870654E+03   5.320164E+00   6.494534E+00
 25  18   4.759533E+00   1.201243E+02   3.878849E+03   5.349753E+00   6.504505E+00
 25  19   1.048668E+01   2.717945E+02   7.619962E+03   5.192596E+00   6.451543E+00
 25  20   9.857506E+00   2.200546E+02   5.235611E+03   4.801056E+00   6.319595E+00
 25  21   1.057696E+01   2.338732E+02   5.468795E+03   4.768821E+00   6.308731E+00
 25  22   1.009550E+01   2.236460E+02   5.272027E+03   4.780764E+00   6.312756E+00
 25  23   1.010339E+01   2.238208E+02   5.276148E+03   4.780764E+00   6.312756E+00
 25  24   1.058345E+01   2.340166E+02   5.472149E+03   4.768821E+00   6.308731E+00
 25  25   9.857817E+00   2.200615E+02   5.235776E+03   4.801056E+00   6.319595E+00
 26   1   1.413716E+01   4.975373E+02   1.892099E+04   6.049225E+00   6.740228E+00
 26   2   1.420826E+01   4.941995E+02   1.855726E+04   6.012377E+00   6.727810E+00
 26   3   1.404428E+01   4.880153E+02   1.843078E+04   6.019686E+00   6.730273E+00
 26   4   1.417213E+01   4.888476E+02   1.838494E+04   6.002393E+00   6.724445E+00
 26   5   1.485210E+01   5.049914E+02   1.856066E+04   5.946429E+00   6.705585E+00
 26   6   1.496443E+01   5.101541E+02   1.876403E+04   5.951393E+00   6.707258E+00
 26   7   1.497344E+01   5.112255E+02   1.884158E+04   5.956646E+00   6.709028E+00
 26   8   1.501636E+01   5.113746E+02   1.879677E+04   5.948842E+00   6.706398E+00
 26   9   1.487451E+01   5.047938E+02   1.857496E+04   5.945393E+00   6.705236E+00
 26  10   5.339043E+00   1.613770E+02   5.863995E+03   5.760886E+00   6.643057E+00
 26  11   5.337100E+00   1.534592E+02   5.493159E+03   5.669742E+00   6.612342E+00
 26  12   5.464775E+00   1.574961E+02   5.641105E+03   5.673817E+00   6.613715E+00
 26  13   5.196860E+00   1.550964E+02   5.672504E+03   5.752843E+00   6.640347E+00
 26  14   5.555753E+00   1.579987E+02   5.553933E+03   5.628215E+00   6.598347E+00
 26  15   5.591429E+00   1.599541E+02   5.634790E+03   5.639372E+00   6.602107E+00
 26  16   5.537198E+00   1.591826E+02   5.644034E+03   5.655524E+00   6.607550E+00
 26  17   5.525883E+00   1.580501E+02   5.585071E+03   5.643666E+00   6.603554E+00
 26  18   5.475999E+00   1.578905E+02   5.640427E+03   5.670581E+00   6.612624E+00
 26  19   1.172633E+01   3.460743E+02   1.109609E+04   5.547076E+00   6.571003E+00
 26  20   1.050568E+01   2.722869E+02   7.633767E+03   5.192596E+00   6.451543E+00
 26  21   1.120113E+01   2.879370E+02   7.965441E+03   5.164589E+00   6.442105E+00
 26  22   1.076515E+01   2.771763E+02   7.714034E+03   5.174520E+00   6.445452E+00
 26  23   1.077541E+01   2.774403E+02   7.721382E+03   5.174520E+00   6.445452E+00
 26  24   1.120944E+01   2.881507E+02   7.971353E+03   5.164589E+00   6.442105E+00
 26  25   1.050608E+01   2.722974E+02   7.634061E+03   5.192596E+00   6.451543E+00
 26  26   1.175406E+01   3.468928E+02   1.112233E+04   5.547076E+00   6.571003E+00
 27   1   6.791110E+00   2.343897E+02   9.609118E+03   6.136965E+00   6.769796E+00
 27   2   6.819756E+00   2.325751E+02   9.432942E+03   6.102270E+00   6.758104E+00
 27   3   6.756817E+00   2.301976E+02   9.388371E+03   6.109488E+00   6.760536E+00
 27   4   6.822708E+00   2.307044E+02   9.379289E+03   6.093409E+00   6.755118E+00
 27   5   7.105484E+00   2.367687E+02   9.434520E+03   6.040472E+00   6.737278E+00
 27   6   7.149885E+00   2.388899E+02   9.522754E+03   6.045021E+00   6.738811E+00
 27   7   7.153029E+00   2.393601E+02   9.558127E+03   6.049971E+00   6.740479E+00
 27   8   7.170110E+00   2.393032E+02   9.534566E+03   6.042653E+00   6.738013E+00
 27   9   7.114942E+00   2.366247E+02   9.441101E+03   6.039663E+00   6.737005E+00
 27  10   2.541120E+00   7.508104E+01   3.001550E+03   5.873633E+00   6.681053E+00
 27  11   2.530870E+00   7.105140E+01   2.819330E+03   5.791640E+00   6.653421E+00
 27  12   2.593979E+00   7.299675E+01   2.897261E+03   5.795282E+00   6.654649E+00
 27  13   2.482256E+00   7.239462E+01   2.916347E+03   5.867344E+00   6.678934E+00
 27  14   2.626873E+00   7.292032E+01   2.849650E+03   5.753019E+00   6.640406E+00
 27  15   2.641856E+00   7.378075E+01   2.886693E+03   5.763029E+00   6.643779E+00
 27  16   2.614437E+00   7.338324E+01   2.886436E+03   5.777973E+00   6.648816E+00
 27  17   2.604313E+00   7.271866E+01   2.853387E+03   5.767182E+00   6.645179E+00
 27  18   2.598416E+00   7.315527E+01   2.896355E+03   5.792111E+00   6.653580E+00
 27  19   5.467168E+00   1.576359E+02   5.631331E+03   5.670581E+00   6.612624E+00
 27  20   4.763166E+00   1.202160E+02   3.881810E+03   5.349753E+00   6.504505E+00
 27  21   5.060561E+00   1.266491E+02   4.047078E+03   5.324465E+00   6.495983E+00
 27  22   4.882291E+00   1.223900E+02   3.930841E+03   5.333605E+00   6.499064E+00
 27  23   4.887409E+00   1.225183E+02   3.934962E+03   5.333605E+00   6.499064E+00
 27  24   5.064678E+00   1.267521E+02   4.050371E+03   5.324465E+00   6.495983E+00
 27  25   4.763368E+00   1.202211E+02   3.881974E+03   5.349753E+00   6.504505E+00
 27  26   5.481799E+00   1.580578E+02   5.646402E+03   5.670581E+00   6.612624E+00
 27  27   2.601585E+00   7.324450E+01   2.899888E+03   5.792111E+00   6.653580E+00
 28   1   6.776073E+00   2.323027E+02   9.440326E+03   6.113133E+00   6.761765E+00
 28   2   6.806816E+00   2.305587E+02   9.268068E+03   6.078222E+00   6.750000E+00
 28   3   6.737803E+00   2.279906E+02   9.216564E+03   6.085537E+00   6.752465E+00
 28   4   6.801788E+00   2.284230E+02   9.204511E+03   6.069387E+00   6.747022E+00
 28   5   7.101123E+00   2.349802E+02   9.277796E+03   6.016053E+00   6.729049E+00
 28   6   7.149156E+00   2.372113E+02   9.369551E+03   6.020615E+00   6.730586E+00
 28   7   7.152755E+00   2.376957E+02   9.405294E+03   6.025601E+00   6.732266E+00
 28   8   7.171175E+00   2.376794E+02   9.383394E+03   6.018236E+00   6.729784E+00
 28   9   7.111072E+00   2.348505E+02   9.285018E+03   6.015265E+00   6.728783E+00
 28  10   2.544704E+00   7.459810E+01   2.955846E+03   5.849008E+00   6.672754E+00
 28  11   2.538083E+00   7.066657E+01   2.779171E+03   5.766748E+00   6.645033E+00
 28  12   2.600368E+00   7.257480E+01   2.854945E+03   5.770401E+00   6.646264E+00
 28  13   2.482301E+00   7.182154E+01   2.868097E+03   5.842836E+00   6.670674E+00
 28  14   2.637359E+00   7.260114E+01   2.811307E+03   5.727796E+00   6.631906E+00
 28  15   2.653139E+00   7.348193E+01   2.848812E+03   5.737844E+00   6.635292E+00
 28  16   2.626305E+00   7.310862E+01   2.849676E+03   5.752907E+00   6.640368E+00
 28  17   2.618001E+00   7.249507E+01   2.818845E+03   5.742054E+00   6.636711E+00
 28  18   2.605164E+00   7.274242E+01   2.854319E+03   5.767182E+00   6.645179E+00
 28  19   5.518947E+00   1.578518E+02   5.578060E+03   5.643666E+00   6.603554E+00
 28  20   4.859952E+00   1.215342E+02   3.874357E+03   5.320164E+00   6.494534E+00
 28  21   5.170310E+00   1.281993E+02   4.043479E+03   5.294602E+00   6.485920E+00
 28  22   4.980923E+00   1.237099E+02   3.922141E+03   5.303864E+00   6.489041E+00
 28  23   4.985963E+00   1.238351E+02   3.926110E+03   5.303864E+00   6.489041E+00
 28  24   5.174376E+00   1.283001E+02   4.046659E+03   5.294602E+00   6.485920E+00
 28  25   4.860150E+00   1.215391E+02   3.874515E+03   5.320164E+00   6.494534E+00
 28  26   5.533054E+00   1.582552E+02   5.592319E+03   5.643666E+00   6.603554E+00
 28  27   2.608178E+00   7.282659E+01   2.857622E+03   5.767182E+00   6.645179E+00
 28  28   2.621697E+00   7.259741E+01   2.822825E+03   5.742054E+00   6.636711E+00
 29   1   6.824635E+00   2.349644E+02   9.577132E+03   6.124164E+00   6.765482E+00
 29   2   6.854939E+00   2.331900E+02   9.402279E+03   6.089319E+00   6.753739E+00
 29   3   6.787330E+00   2.306579E+02   9.352259E+03   6.096582E+00   6.756187E+00
 29   4   6.852311E+00   2.311207E+02   9.341003E+03   6.080441E+00   6.750747E+00
 29   5   7.148535E+00   2.375932E+02   9.409848E+03   6.027252E+00   6.732823E+00
 29   6   7.195768E+00   2.398090E+02   9.501387E+03   6.031818E+00   6.734361E+00
 29   7   7.199252E+00   2.402925E+02   9.537315E+03   6.036791E+00   6.736037E+00
 29   8   7.217381E+00   2.402651E+02   9.514742E+03   6.029440E+00   6.733560E+00
 29   9   7.158398E+00   2.374591E+02   9.416891E+03   6.026447E+00   6.732551E+00
 29  10   2.560119E+00   7.542393E+01   2.996223E+03   5.859850E+00   6.676408E+00
 29  11   2.552341E+00   7.143637E+01   2.816162E+03   5.777509E+00   6.648659E+00
 29  12   2.615283E+00   7.337309E+01   2.893275E+03   5.781167E+00   6.649892E+00
 29  13   2.498395E+00   7.265211E+01   2.908362E+03   5.853568E+00   6.674291E+00
 29  14   2.651255E+00   7.337093E+01   2.848099E+03   5.738670E+00   6.635571E+00
 29  15   2.666892E+00   7.425239E+01   2.885812E+03   5.748726E+00   6.638959E+00
 29  16   2.639704E+00   7.386719E+01   2.886321E+03   5.763752E+00   6.644023E+00
 29  17   2.630786E+00   7.323335E+01   2.854538E+03   5.752907E+00   6.640368E+00
 29  18   2.620000E+00   7.353938E+01   2.892577E+03   5.777973E+00   6.648816E+00
 29  19   5.538811E+00   1.592290E+02   5.645679E+03   5.655524E+00   6.607550E+00
 29  20   4.861457E+00   1.222819E+02   3.912520E+03   5.332688E+00   6.498755E+00
 29  21   5.169776E+00   1.289412E+02   4.082069E+03   5.307213E+00   6.490170E+00
 29  22   4.982643E+00   1.244805E+02   3.961147E+03   5.316427E+00   6.493274E+00
 29  23   4.987741E+00   1.246078E+02   3.965200E+03   5.316427E+00   6.493274E+00
 29  24   5.173885E+00   1.290437E+02   4.085313E+03   5.307213E+00   6.490170E+00
 29  25   4.861658E+00   1.222870E+02   3.912681E+03   5.332688E+00   6.498755E+00
 29  26   5.553173E+00   1.596418E+02   5.660317E+03   5.655524E+00   6.607550E+00
 29  27   2.623081E+00   7.362587E+01   2.895979E+03   5.777973E+00   6.648816E+00
 29  28   2.634558E+00   7.333835E+01   2.858631E+03   5.752907E+00   6.640368E+00
 29  29   2.648131E+00   7.410300E+01   2.895536E+03   5.763752E+00   6.644023E+00
 30   1   6.901046E+00   2.366232E+02   9.594420E+03   6.109846E+00   6.760657E+00
 30   2   6.931457E+00   2.348168E+02   9.417644E+03   6.074873E+00   6.748871E+00
 30   3   6.863757E+00   2.322885E+02   9.368917E+03   6.082195E+00   6.751338E+00
 30   4   6.929654E+00   2.327534E+02   9.357399E+03   6.066012E+00   6.745885E+00
 30   5   7.227353E+00   2.391950E+02   9.421671E+03   6.012586E+00   6.727880E+00
 30   6   7.274716E+00   2.414154E+02   9.512928E+03   6.017159E+00   6.729421E+00
 30   7   7.278189E+00   2.419021E+02   9.549044E+03   6.022153E+00   6.731104E+00
 30   8   7.296374E+00   2.418671E+02   9.525971E+03   6.014775E+00   6.728618E+00
 30   9   7.237272E+00   2.390562E+02   9.428718E+03   6.011793E+00   6.727613E+00
 30  10   2.587795E+00   7.587483E+01   2.998267E+03   5.845081E+00   6.671431E+00
 30  11   2.579543E+00   7.183441E+01   2.816925E+03   5.762587E+00   6.643631E+00
 30  12   2.643263E+00   7.378581E+01   2.894209E+03   5.766251E+00   6.644865E+00
 30  13   2.525773E+00   7.309254E+01   2.910867E+03   5.838872E+00   6.669339E+00
 30  14   2.679190E+00   7.376665E+01   2.847948E+03   5.723551E+00   6.630475E+00
 30  15   2.694913E+00   7.465299E+01   2.885677E+03   5.733628E+00   6.633871E+00
 30  16   2.667364E+00   7.426553E+01   2.886322E+03   5.748726E+00   6.638959E+00
 30  17   2.658152E+00   7.362078E+01   2.854195E+03   5.737844E+00   6.635292E+00
 30  18   2.647993E+00   7.395216E+01   2.893400E+03   5.763029E+00   6.643779E+00
 30  19   5.593960E+00   1.600265E+02   5.637341E+03   5.639372E+00   6.602107E+00
 30  20   4.904318E+00   1.226693E+02   3.895057E+03   5.314944E+00   6.492775E+00
 30  21   5.214615E+00   1.293251E+02   4.062520E+03   5.289305E+00   6.484135E+00
 30  22   5.026633E+00   1.248715E+02   3.943091E+03   5.298592E+00   6.487264E+00
 30  23   5.031796E+00   1.249998E+02   3.947141E+03   5.298592E+00   6.487264E+00
 30  24   5.218775E+00   1.294283E+02   4.065760E+03   5.289305E+00   6.484135E+00
 30  25   4.904521E+00   1.226744E+02   3.895218E+03   5.314944E+00   6.492775E+00
 30  26   5.608535E+00   1.604435E+02   5.652029E+03   5.639372E+00   6.602107E+00
 30  27   2.651125E+00   7.403963E+01   2.896822E+03   5.763029E+00   6.643779E+00
 30  28   2.661984E+00   7.372690E+01   2.858310E+03   5.737844E+00   6.635292E+00
 30  29   2.675925E+00   7.450389E+01   2.895586E+03   5.748726E+00   6.638959E+00
 30  30   2.704090E+00   7.490723E+01   2.895504E+03   5.733628E+00   6.633871E+00
 31   1   6.868266E+00   2.343436E+02   9.481078E+03   6.099093E+00   6.757033E+00
 31   2   6.898286E+00   2.325323E+02   9.305400E+03   6.064077E+00   6.745233E+00
 31   3   6.831618E+00   2.300513E+02   9.258596E+03   6.071456E+00   6.747719E+00
 31   4   6.897404E+00   2.305096E+02   9.247309E+03   6.055280E+00   6.742268E+00
 31   5   7.191722E+00   2.368056E+02   9.306953E+03   6.001737E+00   6.724224E+00
 31   6   7.238432E+00   2.389934E+02   9.396565E+03   6.006300E+00   6.725762E+00
 31   7   7.241835E+00   2.394754E+02   9.432284E+03   6.011304E+00   6.727448E+00
 31   8   7.259776E+00   2.394324E+02   9.409155E+03   6.003917E+00   6.724959E+00
 31   9   7.201534E+00   2.366640E+02   9.313945E+03   6.000966E+00   6.723964E+00
 31  10   2.574448E+00   7.505032E+01   2.961418E+03   5.834891E+00   6.667997E+00
 31  11   2.565822E+00   7.102059E+01   2.781815E+03   5.752616E+00   6.640270E+00
 31  12   2.629319E+00   7.295413E+01   2.858260E+03   5.756269E+00   6.641501E+00
 31  13   2.513142E+00   7.230413E+01   2.875735E+03   5.828829E+00   6.665954E+00
 31  14   2.664597E+00   7.291651E+01   2.811797E+03   5.713496E+00   6.627087E+00
 31  15   2.680150E+00   7.379307E+01   2.848968E+03   5.723551E+00   6.630475E+00
 31  16   2.652672E+00   7.341013E+01   2.849621E+03   5.738670E+00   6.635571E+00
 31  17   2.643298E+00   7.276461E+01   2.817637E+03   5.727796E+00   6.631906E+00
 31  18   2.633984E+00   7.311771E+01   2.857364E+03   5.753019E+00   6.640406E+00
 31  19   5.560069E+00   1.581215E+02   5.558248E+03   5.628215E+00   6.598347E+00
 31  20   4.868718E+00   1.209596E+02   3.832927E+03   5.303522E+00   6.488926E+00
 31  21   5.175978E+00   1.274960E+02   3.996772E+03   5.277825E+00   6.480266E+00
 31  22   4.990210E+00   1.231270E+02   3.880086E+03   5.287155E+00   6.483410E+00
 31  23   4.995356E+00   1.232540E+02   3.884087E+03   5.287155E+00   6.483410E+00
 31  24   5.180123E+00   1.275981E+02   3.999972E+03   5.277825E+00   6.480266E+00
 31  25   4.868920E+00   1.209646E+02   3.833086E+03   5.303522E+00   6.488926E+00
 31  26   5.574632E+00   1.585356E+02   5.572805E+03   5.628215E+00   6.598347E+00
 31  27   2.637118E+00   7.320471E+01   2.860764E+03   5.753019E+00   6.640406E+00
 31  28   2.647130E+00   7.287009E+01   2.821721E+03   5.727796E+00   6.631906E+00
 31  29   2.661235E+00   7.364711E+01   2.858820E+03   5.738670E+00   6.635571E+00
 31  30   2.689330E+00   7.404584E+01   2.858727E+03   5.723551E+00   6.630475E+00
 31  31   2.674741E+00   7.319409E+01   2.822502E+03   5.713496E+00   6.627087E+00
 32   1   6.517145E+00   2.315232E+02   9.692139E+03   6.213471E+00   6.795578E+00
 32   2   6.542588E+00   2.297377E+02   9.516998E+03   6.179236E+00   6.784041E+00
 32   3   6.488088E+00   2.276021E+02   9.478098E+03   6.186104E+00   6.786356E+00
 32   4   6.552996E+00   2.282097E+02   9.473110E+03   6.170099E+00   6.780962E+00
 32   5   6.808080E+00   2.337419E+02   9.515994E+03   6.118149E+00   6.763455E+00
 32   6   6.847176E+00   2.356988E+02   9.599840E+03   6.122716E+00   6.764994E+00
 32   7   6.849759E+00   2.361373E+02   9.633984E+03   6.127585E+00   6.766635E+00
 32   8   6.864855E+00   2.360561E+02   9.609671E+03   6.120361E+00   6.764200E+00
 32   9   6.816674E+00   2.335971E+02   9.521449E+03   6.117231E+00   6.763145E+00
 32  10   2.429929E+00   7.425252E+01   3.022919E+03   5.949119E+00   6.706492E+00
 32  11   2.416730E+00   7.029049E+01   2.837342E+03   5.866679E+00   6.678710E+00
 32  12   2.477928E+00   7.223627E+01   2.916791E+03   5.870349E+00   6.679946E+00
 32  13   2.376882E+00   7.172457E+01   2.940208E+03   5.942119E+00   6.704133E+00
 32  14   2.505618E+00   7.208769E+01   2.867126E+03   5.828829E+00   6.665954E+00
 32  15   2.519228E+00   7.290313E+01   2.903324E+03   5.838872E+00   6.669339E+00
 32  16   2.492434E+00   7.247878E+01   2.901423E+03   5.853568E+00   6.674291E+00
 32  17   2.481060E+00   7.178562E+01   2.866662E+03   5.842836E+00   6.670674E+00
 32  18   2.481841E+00   7.238253E+01   2.915860E+03   5.867344E+00   6.678934E+00
 32  19   5.187369E+00   1.548131E+02   5.662145E+03   5.752843E+00   6.640347E+00
 32  20   4.473535E+00   1.174291E+02   3.890537E+03   5.436632E+00   6.533784E+00
 32  21   4.746847E+00   1.235972E+02   4.054013E+03   5.411930E+00   6.525459E+00
 32  22   4.585914E+00   1.195970E+02   3.941661E+03   5.420745E+00   6.528430E+00
 32  23   4.590879E+00   1.197265E+02   3.945928E+03   5.420745E+00   6.528430E+00
 32  24   4.750829E+00   1.237009E+02   4.057414E+03   5.411930E+00   6.525459E+00
 32  25   4.473730E+00   1.174342E+02   3.890707E+03   5.436632E+00   6.533784E+00
 32  26   5.201853E+00   1.552454E+02   5.677955E+03   5.752843E+00   6.640347E+00
 32  27   2.485020E+00   7.247524E+01   2.919595E+03   5.867344E+00   6.678934E+00
[...]
 88  73   6.860756E+00   2.351724E+02   9.559545E+03   6.113349E+00   6.761837E+00
 88  74   6.946158E+00   2.365773E+02   9.553086E+03   6.093432E+00   6.755125E+00
 88  75   6.899411E+00   2.344081E+02   9.463041E+03   6.089389E+00   6.753763E+00
 88  76   6.626049E+00   2.333350E+02   9.710072E+03   6.190763E+00   6.787926E+00
 88  77   6.878065E+00   2.359356E+02   9.654070E+03   6.124807E+00   6.765698E+00
 88  78   6.761766E+00   2.305851E+02   9.390915E+03   6.108676E+00   6.760262E+00
 88  79   6.742336E+00   2.404676E+02   9.989657E+03   6.207197E+00   6.793464E+00
 88  80   1.885883E+01   7.428332E+02   3.150649E+04   6.393974E+00   6.856408E+00
 88  81   1.894545E+01   7.480688E+02   3.171046E+04   6.396906E+00   6.857396E+00
 88  82   1.893739E+01   7.486001E+02   3.176910E+04   6.400543E+00   6.858622E+00
 88  83   1.895983E+01   7.489825E+02   3.173643E+04   6.396986E+00   6.857423E+00
 88  84   1.884223E+01   7.429768E+02   3.147579E+04   6.393780E+00   6.856342E+00
 88  85   1.819072E+01   7.258791E+02   3.130732E+04   6.441747E+00   6.872507E+00
 88  86   1.800805E+01   7.227664E+02   3.128927E+04   6.457048E+00   6.877664E+00
 88  87   1.824802E+01   7.335525E+02   3.161315E+04   6.452185E+00   6.876025E+00
 88  88   1.824073E+01   7.379392E+02   3.206930E+04   6.476020E+00   6.884057E+00
 
+ van der Waals energies, forces and stresses (Ry,bohr)
  Evdw(total,Ry)   =  -5.206590079105E-01
  Evdw(C6,Ry)      =  -2.562168745524E-01
  Evdw(C8,Ry)      =  -1.502257021488E-01
  Evdw(C10,Ry)     =  -1.142164312092E-01
  Fvdw (001,Ry/bohr) =  -1.424348258304E-04   2.045017993741E-04  -3.009067825702E-04
  Fvdw (002,Ry/bohr) =  -1.331412564223E-04  -6.693451878330E-04   7.659152307569E-04
  Fvdw (003,Ry/bohr) =  -3.311627832113E-05   1.095200853970E-04  -1.799188856612E-04
  Fvdw (004,Ry/bohr) =   2.249130973960E-04   7.525295473739E-05  -2.393097828344E-04
  Fvdw (005,Ry/bohr) =   2.463140381600E-04   5.547125894126E-04   3.999884354772E-04
  Fvdw (006,Ry/bohr) =   6.289451479891E-05   4.390177411721E-04   9.030842927485E-04
  Fvdw (007,Ry/bohr) =  -3.231435232614E-04  -2.190744559561E-04   5.381568600206E-04
  Fvdw (008,Ry/bohr) =   2.783859809475E-04  -5.533030755764E-04   3.955561110908E-05
  Fvdw (009,Ry/bohr) =   4.618423672830E-04  -4.678897644426E-04  -3.036242194448E-04
  Fvdw (010,Ry/bohr) =   1.049593309971E-04   2.726627149335E-05  -8.609967708442E-05
  Fvdw (011,Ry/bohr) =  -4.625972719874E-05  -2.921185537499E-04   2.058212454302E-04
  Fvdw (012,Ry/bohr) =   2.542314332770E-05  -1.111681010457E-04   2.936690171600E-04
  Fvdw (013,Ry/bohr) =   1.242366933693E-06  -2.081829796750E-04   7.381674227528E-05
  Fvdw (014,Ry/bohr) =  -4.590581361362E-05   7.244877694607E-05   1.182505780159E-04
  Fvdw (015,Ry/bohr) =   4.382862452065E-05   5.317123590508E-05   2.732712357103E-04
  Fvdw (016,Ry/bohr) =  -1.141888082818E-04  -1.328320188417E-04   2.737287442914E-04
  Fvdw (017,Ry/bohr) =   3.524188530422E-05  -1.343255841583E-04   1.367300410467E-05
  Fvdw (018,Ry/bohr) =   5.433810667186E-05  -4.874136209105E-05   2.467219735999E-05
  Fvdw (019,Ry/bohr) =  -9.988842701352E-05  -4.493552131312E-04   1.422667399136E-04
  Fvdw (020,Ry/bohr) =   1.837073727501E-04   1.303002265160E-05  -2.001456987126E-04
  Fvdw (021,Ry/bohr) =  -1.821376236654E-04   2.981794089861E-04  -7.744257255487E-05
  Fvdw (022,Ry/bohr) =   1.079841485620E-04   2.018103320572E-04  -3.326851661994E-04
  Fvdw (023,Ry/bohr) =  -1.067706687289E-04  -2.010298688104E-04  -3.341506678423E-04
  Fvdw (024,Ry/bohr) =   1.822864489589E-04  -2.972511282890E-04  -7.427911395182E-05
  Fvdw (025,Ry/bohr) =  -1.837270294725E-04  -1.210365173056E-05  -1.972274835239E-04
  Fvdw (026,Ry/bohr) =   1.025962788718E-04   4.520047367116E-04   1.445446062489E-04
  Fvdw (027,Ry/bohr) =  -5.464255046115E-05   4.875129370544E-05   2.737719558022E-05
  Fvdw (028,Ry/bohr) =  -3.602213858282E-05   1.342523119968E-04   1.540532282835E-05
  Fvdw (029,Ry/bohr) =   1.136233867629E-04   1.335171432035E-04   2.737466587788E-04
  Fvdw (030,Ry/bohr) =  -4.483518323243E-05  -5.198567806686E-05   2.703056988147E-04
  Fvdw (031,Ry/bohr) =   4.614013364408E-05  -7.120115624014E-05   1.146245266889E-04
  Fvdw (032,Ry/bohr) =  -4.456697247306E-07   2.089327191046E-04   7.515933502728E-05
  Fvdw (033,Ry/bohr) =  -2.538583052734E-05   1.115884893845E-04   2.938369587488E-04
  Fvdw (034,Ry/bohr) =   4.651156036604E-05   2.927054763518E-04   2.063568854319E-04
  Fvdw (035,Ry/bohr) =  -1.042370420038E-04  -2.594631465812E-05  -8.293103666446E-05
  Fvdw (036,Ry/bohr) =  -4.650650959713E-04   4.709390476336E-04  -2.998153826273E-04
  Fvdw (037,Ry/bohr) =  -2.818101374613E-04   5.558680921025E-04   4.341889482294E-05
  Fvdw (038,Ry/bohr) =   3.228747811083E-04   2.210228408810E-04   5.392551684639E-04
  Fvdw (039,Ry/bohr) =  -6.601827038969E-05  -4.380553018890E-04   8.991836959263E-04
  Fvdw (040,Ry/bohr) =  -2.487586394092E-04  -5.542917704067E-04   3.946783599372E-04
  Fvdw (041,Ry/bohr) =  -2.262484876307E-04  -7.470439423879E-05  -2.391926783662E-04
  Fvdw (042,Ry/bohr) =   3.632028572577E-05  -1.088545071176E-04  -1.794744888300E-04
  Fvdw (043,Ry/bohr) =   1.348044633138E-04   6.709772005183E-04   7.682041790044E-04
  Fvdw (044,Ry/bohr) =   1.427491891828E-04  -2.033709555788E-04  -2.960889168696E-04
  Fvdw (045,Ry/bohr) =  -1.096722289595E-04   2.009917089786E-04   3.316275277783E-04
  Fvdw (046,Ry/bohr) =   1.807953967361E-04   2.966542077416E-04   7.807068724236E-05
  Fvdw (047,Ry/bohr) =  -1.825719134878E-04   1.184490381792E-05   1.999213142846E-04
  Fvdw (048,Ry/bohr) =   9.745116887816E-05  -4.519415135400E-04  -1.463518981921E-04
  Fvdw (049,Ry/bohr) =  -5.490069162240E-05  -4.966141837738E-05  -2.612250019788E-05
  Fvdw (050,Ry/bohr) =  -3.429378070636E-05  -1.348188035819E-04  -1.491956466771E-05
  Fvdw (051,Ry/bohr) =   1.155116298850E-04  -1.344097158341E-04  -2.753926714347E-04
  Fvdw (052,Ry/bohr) =  -4.242145770332E-05   5.229052214353E-05  -2.717424756414E-04
  Fvdw (053,Ry/bohr) =   4.521159248707E-05   7.184769192006E-05  -1.161656589353E-04
  Fvdw (054,Ry/bohr) =  -2.685244837802E-06  -2.091378713634E-04  -7.577915171269E-05
  Fvdw (055,Ry/bohr) =  -2.552132862530E-05  -1.134088068413E-04  -2.960838332294E-04
  Fvdw (056,Ry/bohr) =   4.620501474555E-05  -2.930141595724E-04  -2.085185572558E-04
  Fvdw (057,Ry/bohr) =  -1.031989878200E-04   2.562207253377E-05   8.644354287999E-05
  Fvdw (058,Ry/bohr) =  -4.621919210652E-04  -4.706615048666E-04   2.983742055819E-04
  Fvdw (059,Ry/bohr) =  -2.757383833822E-04  -5.557223416753E-04  -4.461227285215E-05
  Fvdw (060,Ry/bohr) =   3.267593732030E-04  -2.226862536812E-04  -5.419620589316E-04
  Fvdw (061,Ry/bohr) =  -6.016201139534E-05   4.347459369858E-04  -9.003430599695E-04
  Fvdw (062,Ry/bohr) =  -2.466910377938E-04   5.509364496889E-04  -3.973718272510E-04
  Fvdw (063,Ry/bohr) =  -2.270384874798E-04   7.192989392665E-05   2.347727131716E-04
  Fvdw (064,Ry/bohr) =   2.903298126101E-05   1.055482223991E-04   1.746539134775E-04
  Fvdw (065,Ry/bohr) =   1.317258403910E-04  -6.739793877732E-04  -7.733631978506E-04
  Fvdw (066,Ry/bohr) =   1.415446013273E-04   2.014310723770E-04   3.008524007767E-04
  Fvdw (067,Ry/bohr) =   1.095304885971E-04  -2.030302335451E-04   3.350230580426E-04
  Fvdw (068,Ry/bohr) =  -1.813624446508E-04  -2.992144993958E-04   7.474895796587E-05
  Fvdw (069,Ry/bohr) =   1.820963717761E-04  -1.194531145386E-05   1.986881425664E-04
  Fvdw (070,Ry/bohr) =  -9.807583567511E-05   4.520758498068E-04  -1.414677809458E-04
  Fvdw (071,Ry/bohr) =   5.568752378989E-05   5.072493253970E-05  -2.587771043635E-05
  Fvdw (072,Ry/bohr) =   3.376333224825E-05   1.360514379572E-04  -1.379439665705E-05
  Fvdw (073,Ry/bohr) =  -1.153188310307E-04   1.328266725663E-04  -2.722340997497E-04
  Fvdw (074,Ry/bohr) =   4.302892820678E-05  -5.323569965653E-05  -2.697249273781E-04
  Fvdw (075,Ry/bohr) =  -4.498166031461E-05  -7.261580466684E-05  -1.145358647105E-04
  Fvdw (076,Ry/bohr) =   2.920575290196E-06   2.104250574351E-04  -7.364493290248E-05
  Fvdw (077,Ry/bohr) =   2.554407610251E-05   1.108667518219E-04  -2.925434742146E-04
  Fvdw (078,Ry/bohr) =  -4.621921348856E-05   2.949810493743E-04  -2.045614736600E-04
  Fvdw (079,Ry/bohr) =   1.028412502577E-04  -2.663813581212E-05   8.366469506429E-05
  Fvdw (080,Ry/bohr) =   4.638352473812E-04   4.715359146024E-04   3.010131779784E-04
  Fvdw (081,Ry/bohr) =   2.764272307419E-04   5.565398426977E-04  -4.048884715647E-05
  Fvdw (082,Ry/bohr) =  -3.259753435806E-04   2.192931386337E-04  -5.355555897755E-04
  Fvdw (083,Ry/bohr) =   6.184663474846E-05  -4.384316555602E-04  -8.948323881653E-04
  Fvdw (084,Ry/bohr) =   2.479942930284E-04  -5.543126530908E-04  -3.928393532775E-04
  Fvdw (085,Ry/bohr) =   2.279191149875E-04  -7.503611751757E-05   2.390000914468E-04
  Fvdw (086,Ry/bohr) =  -2.960711995675E-05  -1.104188819689E-04   1.810836852001E-04
  Fvdw (087,Ry/bohr) =  -1.322102407792E-04   6.743053730263E-04  -7.644198493396E-04
  Fvdw (088,Ry/bohr) =  -1.416329800979E-04  -2.034874793991E-04   2.986364360943E-04
  sigma_vdw (Ry/bohr**3) =  -9.405023531186E-05   3.184988963707E-10  -6.948478160285E-09  
                             3.184988963707E-10  -1.047608426907E-04  -1.132471587237E-08  
                            -6.948478160285E-09  -1.132471587237E-08  -1.050957113614E-04  
  sigma_vdw (GPa) =  -1.383526494601E+00   4.685279735548E-06  -1.022156255116E-04  
                      4.685279735548E-06  -1.541084942304E+00  -1.665922940150E-04  
                     -1.022156255116E-04  -1.665922940150E-04  -1.546011029695E+00  
 

!    total energy              =   -1321.43489962 Ry
     Harris-Foulkes estimate   =   -1321.43489962 Ry
     estimated scf accuracy    <          1.0E-11 Ry

     total all-electron energy =     -1321.434900 Ry

     The total energy is the sum of the following terms:

     one-electron contribution =    -649.93275964 Ry
     hartree contribution      =     428.68358433 Ry
     xc contribution           =    -257.99195141 Ry
     ewald contribution        =    -428.30028312 Ry
     Dispersion XDM Correction =      -0.52065901 Ry
     one-center paw contrib.   =    -413.37283078 Ry

     convergence has been achieved in  15 iterations

     Forces acting on atoms (Ry/au):

     atom    1 type  1   force =    -0.00019955   -0.00002653   -0.00005041
     atom    2 type  1   force =     0.00002975   -0.00007952    0.00015136
     atom    3 type  1   force =     0.00012702   -0.00012544    0.00008239
     atom    4 type  1   force =     0.00030438    0.00004299    0.00014197
     atom    5 type  1   force =    -0.00006521    0.00001053   -0.00005488
     atom    6 type  1   force =    -0.00009238   -0.00019297   -0.00002630
     atom    7 type  1   force =    -0.00015881   -0.00012574   -0.00014838
     atom    8 type  1   force =     0.00013739   -0.00007539   -0.00008488
     atom    9 type  1   force =     0.00021534    0.00014748    0.00003001
     atom   10 type  2   force =    -0.00008100   -0.00029833    0.00002293
     atom   11 type  2   force =    -0.00017116    0.00007583   -0.00013899
     atom   12 type  2   force =    -0.00010680    0.00008077    0.00040403
     atom   13 type  2   force =     0.00008958    0.00003532   -0.00004541
     atom   14 type  2   force =    -0.00020531    0.00024043   -0.00002606
     atom   15 type  2   force =     0.00008527    0.00001691   -0.00024990
     atom   16 type  2   force =    -0.00030564   -0.00009961    0.00016546
     atom   17 type  2   force =     0.00013059   -0.00006335    0.00011569
     atom   18 type  2   force =     0.00007843    0.00000857    0.00007830
     atom   19 type  3   force =    -0.00004490    0.00010854    0.00001742
     atom   20 type  4   force =    -0.00025230    0.00010104    0.00004476
     atom   21 type  4   force =    -0.00000487   -0.00013731   -0.00023920
     atom   22 type  4   force =     0.00010971    0.00021279   -0.00013358
     atom   23 type  4   force =    -0.00010971   -0.00021279   -0.00013358
     atom   24 type  4   force =     0.00000487    0.00013731   -0.00023920
     atom   25 type  4   force =     0.00025230   -0.00010104    0.00004476
     atom   26 type  3   force =     0.00004490   -0.00010854    0.00001742
     atom   27 type  2   force =    -0.00007843   -0.00000857    0.00007830
     atom   28 type  2   force =    -0.00013059    0.00006335    0.00011569
     atom   29 type  2   force =     0.00030564    0.00009961    0.00016546
     atom   30 type  2   force =    -0.00008527   -0.00001691   -0.00024990
     atom   31 type  2   force =     0.00020531   -0.00024043   -0.00002606
     atom   32 type  2   force =    -0.00008958   -0.00003532   -0.00004541
     atom   33 type  2   force =     0.00010680   -0.00008077    0.00040403
     atom   34 type  2   force =     0.00017116   -0.00007583   -0.00013899
     atom   35 type  2   force =     0.00008100    0.00029833    0.00002293
     atom   36 type  1   force =    -0.00021534   -0.00014748    0.00003001
     atom   37 type  1   force =    -0.00013739    0.00007539   -0.00008488
     atom   38 type  1   force =     0.00015881    0.00012574   -0.00014838
     atom   39 type  1   force =     0.00009238    0.00019297   -0.00002630
     atom   40 type  1   force =     0.00006521   -0.00001053   -0.00005488
     atom   41 type  1   force =    -0.00030438   -0.00004299    0.00014197
     atom   42 type  1   force =    -0.00012702    0.00012544    0.00008239
     atom   43 type  1   force =    -0.00002975    0.00007952    0.00015136
     atom   44 type  1   force =     0.00019955    0.00002653   -0.00005041
     atom   45 type  4   force =    -0.00010971    0.00021279    0.00013358
     atom   46 type  4   force =     0.00000487   -0.00013731    0.00023920
     atom   47 type  4   force =     0.00025230    0.00010104   -0.00004476
     atom   48 type  3   force =     0.00004490    0.00010854   -0.00001742
     atom   49 type  2   force =    -0.00007843    0.00000857   -0.00007830
     atom   50 type  2   force =    -0.00013059   -0.00006335   -0.00011569
     atom   51 type  2   force =     0.00030564   -0.00009961   -0.00016546
     atom   52 type  2   force =    -0.00008527    0.00001691    0.00024990
     atom   53 type  2   force =     0.00020531    0.00024043    0.00002606
     atom   54 type  2   force =    -0.00008958    0.00003532    0.00004541
     atom   55 type  2   force =     0.00010680    0.00008077   -0.00040403
     atom   56 type  2   force =     0.00017116    0.00007583    0.00013899
     atom   57 type  2   force =     0.00008100   -0.00029833   -0.00002293
     atom   58 type  1   force =    -0.00021534    0.00014748   -0.00003001
     atom   59 type  1   force =    -0.00013739   -0.00007539    0.00008488
     atom   60 type  1   force =     0.00015881   -0.00012574    0.00014838
     atom   61 type  1   force =     0.00009238   -0.00019297    0.00002630
     atom   62 type  1   force =     0.00006521    0.00001053    0.00005488
     atom   63 type  1   force =    -0.00030438    0.00004299   -0.00014197
     atom   64 type  1   force =    -0.00012702   -0.00012544   -0.00008239
     atom   65 type  1   force =    -0.00002975   -0.00007952   -0.00015136
     atom   66 type  1   force =     0.00019955   -0.00002653    0.00005041
     atom   67 type  4   force =     0.00010971   -0.00021279    0.00013358
     atom   68 type  4   force =    -0.00000487    0.00013731    0.00023920
     atom   69 type  4   force =    -0.00025230   -0.00010104   -0.00004476
     atom   70 type  3   force =    -0.00004490   -0.00010854   -0.00001742
     atom   71 type  2   force =     0.00007843   -0.00000857   -0.00007830
     atom   72 type  2   force =     0.00013059    0.00006335   -0.00011569
     atom   73 type  2   force =    -0.00030564    0.00009961   -0.00016546
     atom   74 type  2   force =     0.00008527   -0.00001691    0.00024990
     atom   75 type  2   force =    -0.00020531   -0.00024043    0.00002606
     atom   76 type  2   force =     0.00008958   -0.00003532    0.00004541
     atom   77 type  2   force =    -0.00010680   -0.00008077   -0.00040403
     atom   78 type  2   force =    -0.00017116   -0.00007583    0.00013899
     atom   79 type  2   force =    -0.00008100    0.00029833   -0.00002293
     atom   80 type  1   force =     0.00021534   -0.00014748   -0.00003001
     atom   81 type  1   force =     0.00013739    0.00007539    0.00008488
     atom   82 type  1   force =    -0.00015881    0.00012574    0.00014838
     atom   83 type  1   force =    -0.00009238    0.00019297    0.00002630
     atom   84 type  1   force =    -0.00006521   -0.00001053    0.00005488
     atom   85 type  1   force =     0.00030438   -0.00004299   -0.00014197
     atom   86 type  1   force =     0.00012702    0.00012544   -0.00008239
     atom   87 type  1   force =     0.00002975    0.00007952   -0.00015136
     atom   88 type  1   force =    -0.00019955    0.00002653    0.00005041

     Total force =     0.002346     Total SCF correction =     0.000006


     entering subroutine stress ...

          total   stress  (Ry/bohr**3)                   (kbar)     P=   -0.05
  -0.00000038   0.00000000   0.00000000         -0.06      0.00      0.00
   0.00000000  -0.00000055   0.00000000          0.00     -0.08      0.00
   0.00000000   0.00000000  -0.00000010          0.00      0.00     -0.01


     Writing output data file hippuric.save
 
     init_run     :     18.37s CPU     18.68s WALL (       2 calls)
     electrons    :   4348.88s CPU   4399.83s WALL (      39 calls)
     update_pot   :    258.31s CPU    262.83s WALL (      37 calls)
     forces       :    199.34s CPU    199.93s WALL (      39 calls)
     stress       :    421.71s CPU    423.01s WALL (      39 calls)

     Called by init_run:
     wfcinit      :      7.98s CPU      8.12s WALL (       2 calls)
     potinit      :      2.74s CPU      2.74s WALL (       2 calls)

     Called by electrons:
     c_bands      :   2902.67s CPU   2923.39s WALL (     418 calls)
     sum_band     :   1266.62s CPU   1276.85s WALL (     418 calls)
     v_of_rho     :     31.35s CPU     31.99s WALL (     436 calls)
     newd         :     57.93s CPU     58.14s WALL (     436 calls)
     mix_rho      :      9.88s CPU     10.14s WALL (     418 calls)

     Called by c_bands:
     init_us_2    :     12.73s CPU     13.12s WALL (    7624 calls)
     cegterg      :   2875.16s CPU   2893.09s WALL (    3344 calls)

     Called by *egterg:
     h_psi        :   1745.32s CPU   1758.20s WALL (   15086 calls)
     s_psi        :     86.90s CPU     87.40s WALL (   15086 calls)
     g_psi        :      5.12s CPU      5.00s WALL (   11726 calls)
     cdiaghg      :    584.82s CPU    587.82s WALL (   14606 calls)

     Called by h_psi:
     add_vuspsi   :     89.36s CPU     89.37s WALL (   15086 calls)

     General routines
     calbec       :    147.85s CPU    148.82s WALL (   19350 calls)
     fft          :     67.18s CPU     68.91s WALL (    9906 calls)
     ffts         :      1.76s CPU      1.76s WALL (    1272 calls)
     fftw         :   2474.03s CPU   2492.96s WALL ( 4556516 calls)
     interpolate  :      8.86s CPU      9.08s WALL (    1272 calls)
     davcio       :      0.01s CPU      0.02s WALL (      16 calls)
 
     Parallel routines
     fft_scatter  :   1865.27s CPU   1881.75s WALL ( 4567694 calls)

     PAW routines
     PAW_pot      :     48.22s CPU     48.42s WALL (     473 calls)
     PAW_symme    :      0.18s CPU      0.23s WALL (     891 calls)
 
     PWSCF        :     1h27m CPU        1h29m WALL

 
   This run was terminated on:  19:43:14   2Feb2015            

=------------------------------------------------------------------------------=
   JOB DONE.
=------------------------------------------------------------------------------=
Application 2301293 resources: utime ~511400s, stime ~2002s, Rss ~180380, inblocks ~7736476, outblocks ~14858928
