********************************************************************************
*                       GENERAL UTILITY LATTICE PROGRAM                        *
*                                 Julian Gale                                  *
*                      Nanochemistry Research Institute                        *
*                           Department of Chemistry                            *
*                    Curtin University, Western Australia                      *
********************************************************************************
* Version = 4.4.0 * Last modified = 12th March 2015                            *
********************************************************************************
*  optimise     - perform optimisation run                                     *
*  conp         - constant pressure calculation                                *
*  property     - calculate properties for final geometry                      *
*  phonon       - calculate phonons for final geometry                         *
*  full         - this directive has no effect unless nosymmetry is specified  *
*  molmec       - molecule option activated, Coulomb subtract 1-2/1-3 terms    *
*  compare      - compare initial and final structures                         *
*  rfo          - optimisation step to be determined by RFO method             *
********************************************************************************

  Job Started  at 08:02.41 20th August     2015                               

  Number of CPUs =     1


  Total number of configurations input =   1

********************************************************************************
*  Input for Configuration =   1 : model_0                                     *
********************************************************************************

  Formula = Ba4S4O16                                                    

  Number of irreducible atoms/shells =       5


  Total number atoms/shells =      24

  Dimensionality = 3               :  Bulk   


  Symmetry :

  Crystal family                   :  Orthorhombic
  Crystal class  (Groth - 1921)    :  Orthorhombic Bipyramidal             

  Space group (centrosymmetric)    :  P N M A         

  Patterson group                  :  P m m m  

  Cartesian lattice vectors (Angstroms) :

        8.950666    0.000000    0.000000
        0.000000    5.452931    0.000000
        0.000000    0.000000    7.153354

  Cell parameters (Angstroms/Degrees):

  a =       8.9507    alpha =  90.0000
  b =       5.4529    beta  =  90.0000
  c =       7.1534    gamma =  90.0000

  Initial cell volume =         349.136353 Angs**3

  Temperature of configuration =  0.000     K 

  Pressure of configuration =         0.000 GPa 

  Fractional coordinates of asymmetric unit :

--------------------------------------------------------------------------------
   No.  Atomic       x           y          z         Charge      Occupancy
        Label      (Frac)      (Frac)     (Frac)        (e)         (Frac)  
--------------------------------------------------------------------------------
      1 Ba    c    0.186858 *  0.250000    0.158885 *   2.00000    1.000000    
      2 S     c    0.444198 *  0.750000    0.190863 *   1.36000    1.000000    
      3 O     c    0.595649 *  0.750000    0.115713 *  -0.84000    1.000000    
      4 O     c    0.328231 *  0.750000    0.046345 *  -0.84000    1.000000    
      5 O     c    0.424245 *  0.966092 *  0.309913 *  -0.84000    1.000000    
--------------------------------------------------------------------------------



  Molecule list generated from bond lengths :

  Total number of molecules =     4

--------------------------------------------------------------------------------
Molecule No./:  Atoms
Periodicity  :  
--------------------------------------------------------------------------------
     1  0    : S    c     5 O    c     9 O    c    13 O    c    17 O    c    24
     2  0    : S    c     6 O    c    10 O    c    14 O    c    18 O    c    23
     3  0    : S    c     7 O    c    11 O    c    15 O    c    19 O    c    22
     4  0    : S    c     8 O    c    12 O    c    16 O    c    20 O    c    21
--------------------------------------------------------------------------------


********************************************************************************
*  General input information                                                   *
********************************************************************************

  Species output for all configurations : 

--------------------------------------------------------------------------------
  Species    Type    Atomic    Atomic    Charge       Radii (Angs)     Library
                     Number     Mass       (e)     Cova   Ionic  VDW   Symbol
--------------------------------------------------------------------------------
    Ba       Core       56     137.33   2.000000   1.340  0.000  2.000          
    S        Core       16      32.07   1.360000   1.020  0.000  1.700          
    O        Core        8      16.00  -0.840000   0.730  0.000  1.360          
--------------------------------------------------------------------------------


  Lattice summation method               =    Ewald          (3-D)
                                         =    Parry          (2-D)
                                         =    Saunders et al (1-D)
  Accuracy factor for lattice sums       =   12.000


  Time limit = Infinity

  Maximum range for interatomic potentials =    100000.000000 Angstroms

  General interatomic potentials :

--------------------------------------------------------------------------------
Atom  Types   Potential      Parameter       Value         Units   Cutoffs(Ang)
  1     2                                                            Min /  Max 
--------------------------------------------------------------------------------
O    c Ba   c Buckingham    Buckingham A     4204.7937    eV        0.000 10.000
                            Buckingham rho  0.29070000    Ang       
                            Buckingham C     0.0000000    eV*Ang^6  
--------------------------------------------------------------------------------

  Intramolecular potentials :

--------------------------------------------------------------------------------
Atom  Types   Potential      Parameter       Value         Units   Cutoffs(Ang)
  1     2                                                            Min /  Max 
--------------------------------------------------------------------------------
O    c S    c Morse         Morse  De        5.0000000    eV        0.000 1 Bond
                            Morse  a0        1.2000000    Ang^-1    
                            Morse  r0        1.5202900    Ang       
--------------------------------------------------------------------------------

  Intermolecular potentials :

--------------------------------------------------------------------------------
Atom  Types   Potential      Parameter       Value         Units   Cutoffs(Ang)
  1     2                                                            Min /  Max 
--------------------------------------------------------------------------------
O    c O    c Buckingham    Buckingham A     103585.02    eV        0.000 15.000
                            Buckingham rho  0.20000000    Ang       
                            Buckingham C     25.980000    eV*Ang^6  
--------------------------------------------------------------------------------

  Intramolecular Three-body potentials :

  Harmonic form:

--------------------------------------------------------------------------------
Atom    Atom    Atom           Force Constants            Theta     Cutoffs  
  1       2       3     (eVrad**-2/eVrad**-3/eVrad**-4)   (deg)  1-2  1-3  2-3
--------------------------------------------------------------------------------
S     c O     c O     c  7.152        0.0000    0.0000   109.470     Bonded
--------------------------------------------------------------------------------

********************************************************************************
*  Output for configuration   1 : model_0                                      *
********************************************************************************


  Components of energy : 

--------------------------------------------------------------------------------
  Interatomic potentials     =         -71.79942636 eV    
  Three-body potentials      =           0.09832658 eV    
  Monopole - monopole (real) =         -17.69048809 eV    
  Monopole - monopole (recip)=         -92.09644209 eV    
  Monopole - monopole (total)=        -109.78693018 eV    
--------------------------------------------------------------------------------
  Total lattice energy       =        -181.48802996 eV    
--------------------------------------------------------------------------------
  Total lattice energy       =          -17510.8206 kJ/(mole unit cells)
--------------------------------------------------------------------------------


  Number of variables =       14

  Maximum number of calculations  =          1000
  Maximum Hessian update interval =            10
  Maximum step size               =   1.000000000
  Maximum parameter tolerance     =   0.000010000
  Maximum function  tolerance     =   0.000010000
  Maximum gradient  tolerance     =   0.001000000
  Maximum gradient  component     =   0.010000000

  Symmetry constrained optimisation

  Symmetry used for second derivatives

  Cell parameters to be optimised using strains

  RFO method to be used

  DFP hessian update to be used

  Start of bulk optimisation :

  Cycle:      0 Energy:      -181.488030  Gnorm:      0.002453  CPU:    0.013
  ** Hessian has required structure


  **** Optimisation achieved ****


  Final energy =    -181.48803045 eV
  Final Gnorm  =       0.00000145

  Components of energy : 

--------------------------------------------------------------------------------
  Interatomic potentials     =         -71.79915197 eV    
  Three-body potentials      =           0.09841892 eV    
  Monopole - monopole (real) =         -17.69036049 eV    
  Monopole - monopole (recip)=         -92.09693691 eV    
  Monopole - monopole (total)=        -109.78729740 eV    
--------------------------------------------------------------------------------
  Total lattice energy       =        -181.48803045 eV    
--------------------------------------------------------------------------------
  Total lattice energy       =          -17510.8206 kJ/(mole unit cells)
--------------------------------------------------------------------------------

  Final asymmetric unit coordinates :

--------------------------------------------------------------------------------
   No.  Atomic        x           y           z         Radius
        Label       (Frac)      (Frac)      (Frac)       (Angs) 
--------------------------------------------------------------------------------
     1  Ba    c     0.186866    0.250000    0.158860    0.000000
     2  S     c     0.444196    0.750000    0.190870    0.000000
     3  O     c     0.595654    0.750000    0.115755    0.000000
     4  O     c     0.328245    0.750000    0.046334    0.000000
     5  O     c     0.424233    0.966097    0.309914    0.000000
--------------------------------------------------------------------------------

  Final Cartesian lattice vectors (Angstroms) :

        8.950759    0.000000    0.000000
        0.000000    5.452717    0.000000
        0.000000    0.000000    7.153444


  Final cell parameters and derivatives :

--------------------------------------------------------------------------------
       a            8.950759 Angstrom     dE/de1(xx)     0.000001 eV/strain
       b            5.452717 Angstrom     dE/de2(yy)    -0.000002 eV/strain
       c            7.153444 Angstrom     dE/de3(zz)    -0.000001 eV/strain
       alpha       90.000000 Degrees      dE/de4(yz)     0.000000 eV/strain
       beta        90.000000 Degrees      dE/de5(xz)     0.000000 eV/strain
       gamma       90.000000 Degrees      dE/de6(xy)     0.000000 eV/strain
--------------------------------------------------------------------------------

  Primitive cell volume =           349.130644 Angs**3

  Density of cell =      4.440469 g/cm**3

  Non-primitive cell volume =           349.130644 Angs**3


  Final internal derivatives :

--------------------------------------------------------------------------------
   No.  Atomic          a             b             c           Radius
        Label          (eV)          (eV)          (eV)        (eV/Angs)
--------------------------------------------------------------------------------
      1 Ba    c      -0.000002      0.000000      0.000000      0.000000
      2 S     c      -0.000008      0.000000      0.000004      0.000000
      3 O     c       0.000013      0.000000     -0.000003      0.000000
      4 O     c      -0.000007      0.000000     -0.000007      0.000000
      5 O     c       0.000001      0.000003      0.000005      0.000000
--------------------------------------------------------------------------------
  Maximum abs         0.000013      0.000003      0.000007      0.000000
--------------------------------------------------------------------------------

  Comparison of initial and final structures : 

--------------------------------------------------------------------------------
  Parameter   Initial value   Final value   Difference    Units      Percent
--------------------------------------------------------------------------------
    Volume       349.136353    349.130644    -0.005709    Angs**3     -0.00
    a              8.950666      8.950759     0.000093    Angstroms    0.00
    b              5.452931      5.452717    -0.000214    Angstroms   -0.00
    c              7.153354      7.153444     0.000090    Angstroms    0.00
    alpha         90.000000     90.000000     0.000000    Degrees      0.00
    beta          90.000000     90.000000     0.000000    Degrees      0.00
    gamma         90.000000     90.000000     0.000000    Degrees      0.00
      1 x          0.186858      0.186866     0.000008    Fractional   0.00
      1 y          0.250000      0.250000     0.000000    Fractional   0.00
      1 z          0.158885      0.158860     0.000025    Fractional   0.02
      2 x          0.444198      0.444196     0.000002    Fractional   0.00
      2 y          0.750000      0.750000     0.000000    Fractional   0.00
      2 z          0.190863      0.190870     0.000007    Fractional   0.00
      3 x          0.595649      0.595654     0.000005    Fractional   0.00
      3 y          0.750000      0.750000     0.000000    Fractional   0.00
      3 z          0.115713      0.115755     0.000042    Fractional   0.04
      4 x          0.328231      0.328245     0.000014    Fractional   0.00
      4 y          0.750000      0.750000     0.000000    Fractional   0.00
      4 z          0.046345      0.046334     0.000011    Fractional   0.02
      5 x          0.424245      0.424233     0.000012    Fractional   0.00
      5 y          0.966092      0.966097     0.000005    Fractional   0.00
      5 z          0.309913      0.309914     0.000001    Fractional   0.00
--------------------------------------------------------------------------------


  Born effective charge tensors : 

-------------------------------------------------------------------------------
  Atom             x           y             z
-------------------------------------------------------------------------------
   1 Ba    x       2.0000      0.0000      0.0000
           y       0.0000      2.0000      0.0000
           z       0.0000      0.0000      2.0000
-------------------------------------------------------------------------------
   2 S     x       1.3600      0.0000      0.0000
           y       0.0000      1.3600      0.0000
           z       0.0000      0.0000      1.3600
-------------------------------------------------------------------------------
   3 O     x      -0.8400      0.0000      0.0000
           y       0.0000     -0.8400      0.0000
           z       0.0000      0.0000     -0.8400
-------------------------------------------------------------------------------
   4 O     x      -0.8400      0.0000      0.0000
           y       0.0000     -0.8400      0.0000
           z       0.0000      0.0000     -0.8400
-------------------------------------------------------------------------------
   5 O     x      -0.8400      0.0000      0.0000
           y       0.0000     -0.8400      0.0000
           z       0.0000      0.0000     -0.8400
-------------------------------------------------------------------------------




  Elastic Constant Matrix: (Units=GPa)

-------------------------------------------------------------------------------
  Indices      1         2         3         4         5         6    
-------------------------------------------------------------------------------
       1     99.4551   44.4724   30.2647   -0.0000   -0.0000    0.0000
       2     44.4724   85.5396   28.8767   -0.0000   -0.0000   -0.0000
       3     30.2647   28.8767  114.9539    0.0000   -0.0000    0.0000
       4      0.0000   -0.0000   -0.0000   13.2289   -0.0000   -0.0000
       5      0.0000   -0.0000   -0.0000   -0.0000   33.8672    0.0000
       6      0.0000   -0.0000    0.0000    0.0000    0.0000   27.9020
-------------------------------------------------------------------------------


  Elastic Compliance Matrix: (Units=1/GPa)

-------------------------------------------------------------------------------
  Indices      1         2         3         4         5         6    
-------------------------------------------------------------------------------
       1    0.013491 -0.006354 -0.001956  0.000000  0.000000 -0.000000
       2   -0.006354  0.015766 -0.002288  0.000000  0.000000  0.000000
       3   -0.001956 -0.002288  0.009789 -0.000000  0.000000  0.000000
       4   -0.000000  0.000000  0.000000  0.075592  0.000000  0.000000
       5   -0.000000  0.000000  0.000000  0.000000  0.029527 -0.000000
       6   -0.000000  0.000000  0.000000 -0.000000 -0.000000  0.035840
-------------------------------------------------------------------------------

  Mechanical properties :

-------------------------------------------------------------------------------
  Convention :                    Reuss         Voigt         Hill
-------------------------------------------------------------------------------
  Bulk  Modulus (GPa)     =      56.01812      56.35291      56.18552
  Shear Modulus (GPa)     =      24.13708      28.08859      26.11284
-------------------------------------------------------------------------------
  Velocity S-wave (km/s)  =       2.33146       2.51507       2.42500
  Velocity P-wave (km/s)  =       4.45679       4.59618       4.52702
-------------------------------------------------------------------------------
  Compressibility (1/GPa) =    0.01785137
-------------------------------------------------------------------------------
  Stress axis :                     x             y             z
-------------------------------------------------------------------------------
  Youngs Moduli (GPa)     =      74.12269      63.42689     102.15830
-------------------------------------------------------------------------------
  Poissons Ratio (x)      =                     0.40301       0.19980
  Poissons Ratio (y)      =       0.47097                     0.23371
  Poissons Ratio (z)      =       0.14497       0.14510
-------------------------------------------------------------------------------


  Piezoelectric Strain Matrix: (Units=C/m**2)

-------------------------------------------------------------------------------
  Indices      1         2         3         4         5         6    
-------------------------------------------------------------------------------
       x    -0.00000  -0.00000   0.00000   0.00000  -0.00000   0.00000
       y     0.00000   0.00000   0.00000   0.00000  -0.00000   0.00000
       z    -0.00000  -0.00000   0.00000   0.00000   0.00000  -0.00000
-------------------------------------------------------------------------------


  Piezoelectric Stress Matrix: (Units=10**-11 C/N)

-------------------------------------------------------------------------------
  Indices      1         2         3         4         5         6    
-------------------------------------------------------------------------------
       x    -0.00000  -0.00000   0.00000   0.00000  -0.00000   0.00000
       y     0.00000   0.00000  -0.00000   0.00000  -0.00000   0.00000
       z    -0.00000  -0.00000   0.00000   0.00000   0.00000  -0.00000
-------------------------------------------------------------------------------


  Static dielectric constant tensor : 

-------------------------------------------------------------------------------
              x         y         z
-------------------------------------------------------------------------------
       x     3.37010   0.00000   0.00000
       y     0.00000   9.81802  -0.00000
       z     0.00000  -0.00000   3.26356
--------------------------------------------------------------------------------

  Static refractive indices : 

-------------------------------------------------------------------------------
    1 =    1.80653      2 =    1.83578      3 =    3.13337
-------------------------------------------------------------------------------


  Phonon Calculation : 

  Number of k points for this configuration =        1

--------------------------------------------------------------------------------
  K point      1 =   0.000000  0.000000  0.000000  Weight =    1.000
--------------------------------------------------------------------------------

  Frequencies (cm-1) [NB: Negative implies an imaginary mode]:

   -0.00    0.00    0.00   56.49   56.67   57.49   60.07   66.81   79.50
   84.61  103.09  111.36  119.75  120.42  123.32  123.34  124.47  130.24
  132.05  133.68  136.89  146.05  146.78  147.24  151.95  152.68  167.12
  173.64  178.94  185.95  189.77  191.28  201.47  204.17  206.59  215.19
  367.28  378.63  396.99  423.47  429.40  429.58  430.74  435.72  444.28
  444.58  444.74  446.67  454.35  455.73  457.25  465.81  467.33  469.35
  473.20  491.56  576.24  584.40  586.06  587.07  741.60  742.11  749.54
  754.36  755.34  762.09  762.60  770.53  771.41  778.14  795.99  820.57


--------------------------------------------------------------------------------
  Phonon properties (per mole of unit cells): Temperature =      0.000 K
--------------------------------------------------------------------------------
  Zero point energy            =        1.538889 eV
--------------------------------------------------------------------------------

  Time to end of optimisation =       0.0549 seconds


  Peak dynamic memory used =       0.65 MB 


  Timing analysis for GULP :

--------------------------------------------------------------------------------
  Task / Subroutine                                          Time (Seconds)
--------------------------------------------------------------------------------
  Calculation of reciprocal space energy and derivatives          0.0066
  Calculation of reciprocal space energy using symmetry           0.0015
  Calculation of real space energy and derivatives                0.0261
  Calculation of real space energy using symmetry                 0.0080
  Calculation of three-body energy and derivatives                0.0011
  Calculation of molecules and connectivity                       0.0003
  Calculation of phonons                                          0.0107
  Calculation of scattering                                       0.0000
  Symmetry generation of equivalent positions                     0.0005
--------------------------------------------------------------------------------
  Total CPU time                                                  0.0550
--------------------------------------------------------------------------------


  Dump file written as model_0.res                                             


  Job Finished at 08:02.41 20th August     2015                               

