********************************************************************************
*                       GENERAL UTILITY LATTICE PROGRAM                        *
*                                 Julian Gale                                  *
*                      Nanochemistry Research Institute                        *
*                           Department of Chemistry                            *
*                    Curtin University, Western Australia                      *
********************************************************************************
* Version = 4.3.0 * Last modified =  14th June 2014                            *
********************************************************************************
*  optimise     - perform optimisation run                                     *
*  conp         - constant pressure calculation                                *
*  molmec       - molecule option activated, Coulomb subtract 1-2/1-3 terms    *
********************************************************************************

  Job Started  at 14:37.00  2nd March      2015                               

  Number of CPUs =     1


  Total number of configurations input =   1

********************************************************************************
*  Input for Configuration =   1                                               *
********************************************************************************

  Formula = C8H18                                                       

  Number of irreducible atoms/shells =      26


  Total number atoms/shells =      26

  Dimensionality = 0               :  Cluster


  Charge on cluster =  -0.000000


  Initial cluster dipoles : x =      0.000000 e.Angs
                            y =      0.000000 e.Angs
                            z =      0.000000 e.Angs

  Temperature of configuration =  0.000     K 

  Symmetry number =      1

  Cartesian coordinates of cluster :

--------------------------------------------------------------------------------
   No.  Atomic       x           y          z         Charge      Occupancy
        Label      (Angs)      (Angs)     (Angs)        (e)         (Frac)  
--------------------------------------------------------------------------------
      1 C     c      4.4810 *    0.2560 *   -0.0000 *  -0.08110    1.000000    
      2 H     c      4.5500 *    0.8940 *    0.8770 *   0.01600    1.000000    
      3 H     c      4.5500 *    0.8940 *   -0.8770 *   0.01600    1.000000    
      4 H     c      5.3450 *   -0.4010 *    0.0000 *   0.01600    1.000000    
      5 C     c      3.1770 *   -0.5410 *    0.0000 *   0.03480    1.000000    
      6 H     c      3.1540 *   -1.1940 *    0.8700 *  -0.00250    1.000000    
      7 H     c      3.1540 *   -1.1940 *   -0.8700 *  -0.00250    1.000000    
      8 C     c      1.9320 *    0.3470 *   -0.0000 *   0.01350    1.000000    
      9 H     c      1.9580 *    1.0000 *    0.8700 *  -0.00030    1.000000    
     10 H     c      1.9580 *    1.0000 *   -0.8710 *  -0.00030    1.000000    
     11 C     c      0.6230 *   -0.4450 *   -0.0000 *   0.00760    1.000000    
     12 H     c      0.5980 *   -1.0980 *    0.8710 *  -0.00860    1.000000    
     13 H     c      0.5980 *   -1.0980 *   -0.8710 *  -0.00860    1.000000    
     14 C     c     -0.6230      0.4450      0.0000     0.00760    1.000000    
     15 H     c     -0.5980 *    1.0980 *    0.8710 *  -0.00860    1.000000    
     16 H     c     -0.5980 *    1.0980 *   -0.8710 *  -0.00860    1.000000    
     17 C     c     -1.9320 *   -0.3470 *    0.0000 *   0.01350    1.000000    
     18 H     c     -1.9580 *   -1.0000 *    0.8710 *  -0.00030    1.000000    
     19 H     c     -1.9580 *   -1.0000 *   -0.8710 *  -0.00030    1.000000    
     20 C     c     -3.1770 *    0.5410 *    0.0000 *   0.03480    1.000000    
     21 H     c     -3.1540 *    1.1940 *    0.8700 *  -0.00250    1.000000    
     22 H     c     -3.1540 *    1.1940 *   -0.8700 *  -0.00250    1.000000    
     23 C     c     -4.4810 *   -0.2560 *   -0.0000 *  -0.08110    1.000000    
     24 H     c     -4.5500 *   -0.8940 *    0.8770 *   0.01600    1.000000    
     25 H     c     -4.5500 *   -0.8940 *   -0.8770 *   0.01600    1.000000    
     26 H     c     -5.3450 *    0.4010 *   -0.0000 *   0.01600    1.000000    
--------------------------------------------------------------------------------



  Molecule list generated from bond lengths :

  Total number of molecules =     1

--------------------------------------------------------------------------------
Molecule No./:  Atoms
Periodicity  :  
--------------------------------------------------------------------------------
     1  0    : C    c     1 H    c     2 H    c     3 H    c     4 C    c     5
             : H    c     6 H    c     7 C    c     8 H    c     9 H    c    10
             : C    c    11 H    c    12 H    c    13 C    c    14 H    c    15
             : H    c    16 C    c    17 H    c    18 H    c    19 C    c    20
             : H    c    21 H    c    22 C    c    23 H    c    24 H    c    25
             : H    c    26
--------------------------------------------------------------------------------


********************************************************************************
*  General input information                                                   *
********************************************************************************

  Species output for all configurations : 

--------------------------------------------------------------------------------
  Species    Type    Atomic    Atomic    Charge       Radii (Angs)     Library
                     Number     Mass       (e)     Cova   Ionic  VDW   Symbol
--------------------------------------------------------------------------------
    C        Core        6      12.01  -0.081100   0.770  0.000  1.530          
    H        Core        1       1.01   0.016000   0.370  0.000  1.080          
--------------------------------------------------------------------------------


  Accuracy factor for short range sums = 12.000

  Time limit = Infinity

  Maximum range for interatomic potentials =    100000.000000 Angstroms

  General interatomic potentials :

--------------------------------------------------------------------------------
Atom  Types   Potential         A         B         C         D     Cutoffs(Ang)
  1     2                                                            Min    Max 
--------------------------------------------------------------------------------
C    c C    c Lenn/es 12  6 0.474E-02  3.82      0.00      0.00     3Bond 12.000
H    c C    c Lenn/es 12  6 0.180E-02  3.39      0.00      0.00     3Bond 12.000
H    c H    c Lenn/es 12  6 0.681E-03  2.97      0.00      0.00     3Bond 12.000
--------------------------------------------------------------------------------

  Intramolecular potentials :

--------------------------------------------------------------------------------
Atom  Types   Potential         A         B         C         D     Cutoffs(Ang)
  1     2                                                            Min    Max 
--------------------------------------------------------------------------------
X    c X    c Coulomb        0.00      0.00      0.00      1.00     1-4only 7.00
C    c C    c Harmonic       26.3      1.53      0.00      0.00     0.000 1 Bond
H    c C    c Harmonic       29.3      1.09      0.00      0.00     0.000 1 Bond
--------------------------------------------------------------------------------

  Intramolecular Three-body potentials :

  Harmonic form:

--------------------------------------------------------------------------------
Atom    Atom    Atom           Force Constants            Theta     Cutoffs  
  1       2       3     (eVrad**-2/eVrad**-3/eVrad**-4)   (deg)  1-2  1-3  2-3
--------------------------------------------------------------------------------
C     c C     c C     c  5.482        0.0000    0.0000   110.630     Bonded
C     c H     c C     c  4.022        0.0000    0.0000   110.050     Bonded
C     c H     c H     c  3.420        0.0000    0.0000   108.350     Bonded
--------------------------------------------------------------------------------

  Intramolecular Four-body potentials :

  Standard form:

--------------------------------------------------------------------------------
         Atom Types             Force cst Sign Phase Phi0         Cutoffs
   1       2       3       4       (eV)                     1-2  2-3  3-4  4-1
--------------------------------------------------------------------------------
C     c C     c C     c C     c  0.8673E-02 +   1   180.00  Bonded              
C     c C     c C     c C     c  0.1084E-01 +   2   180.00  Bonded              
C     c C     c C     c C     c  0.7806E-02 +   3     0.00  Bonded              
C     c C     c C     c H     c  0.6938E-02 +   3     0.00  Bonded              
H     c C     c C     c H     c  0.6505E-02 +   3     0.00  Bonded              
--------------------------------------------------------------------------------

********************************************************************************
*  Output for configuration   1                                                *
********************************************************************************


  Components of energy : 

--------------------------------------------------------------------------------
  Interatomic potentials     =           0.06144956 eV
  Three-body potentials      =           0.06273303 eV
  Four-body potentials       =           0.08954383 eV
  Improper torsions          =           0.00000000 eV
  Out of plane potentials    =           0.00000000 eV
  Monopole - monopole (real) =           0.00138316 eV
--------------------------------------------------------------------------------
  Total lattice energy       =           0.21510958 eV
--------------------------------------------------------------------------------
  Total lattice energy       =              20.7548 kJ/mol
--------------------------------------------------------------------------------


  Number of variables =       75

  Maximum number of calculations  =          1000
  Maximum Hessian update interval =            10
  Maximum step size               =   1.000000000
  Maximum parameter tolerance     =   0.000010000
  Maximum function  tolerance     =   0.000010000
  Maximum gradient  tolerance     =   0.001000000
  Maximum gradient  component     =   0.010000000

  Symmetry not applied to optimisation

  Newton-Raphson optimiser to be used

  BFGS hessian update to be used

  Start of cluster optimisation :

  Cycle:      0 Energy:         0.215110  Gnorm:      0.025785  CPU:    0.009
  ** Hessian calculated **
  Cycle:      1 Energy:         0.162343  Gnorm:      0.000133  CPU:    0.012
  Cycle:      2 Energy:         0.162343  Gnorm:      0.000133  CPU:    0.013
  ** Hessian calculated **


  **** Optimisation achieved ****


  Final energy =       0.16233968 eV
  Final Gnorm  =       0.00000018

  Components of energy : 

--------------------------------------------------------------------------------
  Interatomic potentials     =           0.06309757 eV
  Three-body potentials      =           0.01026959 eV
  Four-body potentials       =           0.08758864 eV
  Improper torsions          =           0.00000000 eV
  Out of plane potentials    =           0.00000000 eV
  Monopole - monopole (real) =           0.00138388 eV
--------------------------------------------------------------------------------
  Total lattice energy       =           0.16233968 eV
--------------------------------------------------------------------------------
  Total lattice energy       =              15.6633 kJ/mol
--------------------------------------------------------------------------------

  Final cartesian coordinates of atoms :

--------------------------------------------------------------------------------
   No.  Atomic        x           y          z          Radius
        Label       (Angs)      (Angs)     (Angs)       (Angs) 
--------------------------------------------------------------------------------
     1  C     c     4.466583    0.242740    0.000189    0.000000
     2  H     c     4.523941    0.877840    0.887264    0.000000
     3  H     c     4.524004    0.877770   -0.886933    0.000000
     4  H     c     5.330463   -0.425631    0.000246    0.000000
     5  C     c     3.161529   -0.574306    0.000175    0.000000
     6  H     c     3.141532   -1.219512    0.881941    0.000000
     7  H     c     3.141594   -1.219583   -0.881540    0.000000
     8  C     c     1.922638    0.345816    0.000095    0.000000
     9  H     c     1.947917    0.990882    0.882163    0.000000
    10  H     c     1.947980    0.990811   -0.882024    0.000000
    11  C     c     0.615897   -0.475208    0.000081    0.000000
    12  H     c     0.590751   -1.120193    0.882199    0.000000
    13  H     c     0.590814   -1.120264   -0.881986    0.000000
    14  C     c    -0.623000    0.445000    0.000000    0.000000
    15  H     c    -0.597917    1.090055    0.882068    0.000000
    16  H     c    -0.597854    1.089985   -0.882118    0.000000
    17  C     c    -1.929741   -0.376024   -0.000014    0.000000
    18  H     c    -1.955083   -1.021020    0.882104    0.000000
    19  H     c    -1.955021   -1.021089   -0.882083    0.000000
    20  C     c    -3.168632    0.544097   -0.000093    0.000000
    21  H     c    -3.148698    1.189372    0.881624    0.000000
    22  H     c    -3.148635    1.189306   -0.881857    0.000000
    23  C     c    -4.473687   -0.272949   -0.000108    0.000000
    24  H     c    -4.531107   -0.907981    0.887011    0.000000
    25  H     c    -4.531044   -0.908046   -0.887185    0.000000
    26  H     c    -5.337567    0.395423   -0.000164    0.000000
--------------------------------------------------------------------------------


  Final Cartesian derivatives :

--------------------------------------------------------------------------------
   No.  Atomic          x             y             z           Radius
        Label       (eV/Angs)     (eV/Angs)    (eV/Angs)      (eV/Angs)
--------------------------------------------------------------------------------
      1 C     c      -0.000001      0.000001      0.000000      0.000000
      2 H     c      -0.000000      0.000000     -0.000000      0.000000
      3 H     c      -0.000000      0.000000     -0.000000      0.000000
      4 H     c       0.000001     -0.000001      0.000000      0.000000
      5 C     c      -0.000001      0.000001      0.000001      0.000000
      6 H     c       0.000000     -0.000000      0.000000      0.000000
      7 H     c       0.000000     -0.000001     -0.000001      0.000000
      8 C     c       0.000001      0.000001     -0.000001      0.000000
      9 H     c       0.000000      0.000001      0.000001      0.000000
     10 H     c      -0.000000      0.000000      0.000000      0.000000
     11 C     c       0.000001     -0.000001     -0.000003      0.000000
     12 H     c      -0.000000     -0.000002      0.000003      0.000000
     13 H     c       0.000001     -0.000001     -0.000000      0.000000
     14 C     c       0.000000      0.000000      0.000000      0.000000
     15 H     c      -0.000001      0.000002      0.000002      0.000000
     16 H     c       0.000001      0.000003     -0.000004      0.000000
     17 C     c      -0.000002     -0.000001     -0.000001      0.000000
     18 H     c      -0.000000     -0.000001      0.000001      0.000000
     19 H     c      -0.000000     -0.000001     -0.000001      0.000000
     20 C     c       0.000001     -0.000000     -0.000001      0.000000
     21 H     c      -0.000000      0.000000      0.000001      0.000000
     22 H     c      -0.000000      0.000001     -0.000000      0.000000
     23 C     c       0.000003      0.000002      0.000001      0.000000
     24 H     c      -0.000000     -0.000004      0.000004      0.000000
     25 H     c       0.000000     -0.000003     -0.000004      0.000000
     26 H     c      -0.000003      0.000004     -0.000000      0.000000
--------------------------------------------------------------------------------
  Maximum abs         0.000003      0.000004      0.000004      0.000000
--------------------------------------------------------------------------------


  Time to end of optimisation =       0.0166 seconds


  Peak dynamic memory used =       0.66 MB 


  Timing analysis for GULP :

--------------------------------------------------------------------------------
  Task / Subroutine                                          Time (Seconds)
--------------------------------------------------------------------------------
  Calculation of real space energy and derivatives                0.0039
  Calculation of three-body energy and derivatives                0.0011
  Calculation of four-body energy and derivatives                 0.0019
  Calculation of matrix inversion                                 0.0008
--------------------------------------------------------------------------------
  Total CPU time                                                  0.0168
--------------------------------------------------------------------------------


  Job Finished at 14:37.00  2nd March      2015                               

