********************************************************************************
*                       GENERAL UTILITY LATTICE PROGRAM                        *
*                                 Julian Gale                                  *
*                      Nanochemistry Research Institute                        *
*                           Department of Chemistry                            *
*                    Curtin University, Western Australia                      *
********************************************************************************
* Version = 4.3.0 * Last modified =  14th June 2014                            *
********************************************************************************
*  optimise     - perform optimisation run                                     *
*  conp         - constant pressure calculation                                *
*  property     - calculate properties for final geometry                      *
*  phonon       - calculate phonons for final geometry                         *
*  compare      - compare initial and final structures                         *
********************************************************************************

  Job Started  at 11:02.11 24th February   2015                               

  Number of CPUs =     1


  Total number of configurations input =   1

********************************************************************************
*  Input for Configuration =   1 : quartz                                      *
********************************************************************************

  Formula = Si3O6                                                       

  Number of irreducible atoms/shells =       3


  Total number atoms/shells =      15

  Dimensionality = 3               :  Bulk   


  Symmetry :

  Crystal family                   :  Hexagonal   
  Crystal class  (Groth - 1921)    :  Trigonal Trapezohedral               

  Space group (noncentrosymmetric) :  P 31 2 1        

  Patterson group                  :  P -3 m 1 

  Cartesian lattice vectors (Angstroms) :

        4.914730    0.000000    0.000000
       -2.457365    4.256281    0.000000
        0.000000    0.000000    5.406570

  Cell parameters (Angstroms/Degrees):

  a =       4.9147    alpha =  90.0000
  b =       4.9147    beta  =  90.0000
  c =       5.4066    gamma = 120.0000

  Initial cell volume =         113.097184 Angs**3

  Temperature of configuration =  0.000     K 

  Pressure of configuration =         0.000 GPa 

  Fractional coordinates of asymmetric unit :

--------------------------------------------------------------------------------
   No.  Atomic       x           y          z         Charge      Occupancy
        Label      (Frac)      (Frac)     (Frac)        (e)         (Frac)  
--------------------------------------------------------------------------------
      1 Si    c    0.468200 *  0.000000    0.333333     4.00000    1.000000    
      2 O     c    0.413100 *  0.266100 *  0.213100 *   0.86902    1.000000    
      3 O     s    0.431522 *  0.266445 *  0.204492 *  -2.86902    1.000000    
--------------------------------------------------------------------------------


  Constraints : 

--------------------------------------------------------------------------------
  Constraint no.      Unconstrained     Constrained    Coefficient    Offset
                         Variable         Variable
--------------------------------------------------------------------------------
           1              Strain 1        Strain 2       1.00000      0.0000
--------------------------------------------------------------------------------


********************************************************************************
*  General input information                                                   *
********************************************************************************

  Species output for all configurations : 

--------------------------------------------------------------------------------
  Species    Type    Atomic    Atomic    Charge       Radii (Angs)     Library
                     Number     Mass       (e)     Cova   Ionic  VDW   Symbol
--------------------------------------------------------------------------------
    Si       Core       14      28.09   4.000000   1.200  0.000  2.100          
    O        Core        8      16.00   0.869020   0.730  0.000  1.360          
    O        Shell       8       0.00  -2.869020   0.730  0.000  1.360          
--------------------------------------------------------------------------------


  Lattice summation method               =    Ewald          (3-D)
                                         =    Parry          (2-D)
                                         =    Saunders et al (1-D)
  Accuracy factor for lattice sums       =   12.000


  Time limit = Infinity

  Maximum range for interatomic potentials =    100000.000000 Angstroms

  General interatomic potentials :

--------------------------------------------------------------------------------
Atom  Types   Potential         A         B         C         D     Cutoffs(Ang)
  1     2                                                            Min    Max 
--------------------------------------------------------------------------------
Si   c O    s Buckingham    0.128E+04 0.321      10.7      0.00     0.000 12.000
O    s O    s Buckingham    0.228E+05 0.149      27.9      0.00     0.000 12.000
O    c O    s Spring (c-s)   74.9      0.00      0.00      0.00     0.000  0.800
--------------------------------------------------------------------------------

  General Three-body potentials :

  Harmonic form:

--------------------------------------------------------------------------------
Atom    Atom    Atom           Force Constants            Theta     Cutoffs  
  1       2       3     (eVrad**-2/eVrad**-3/eVrad**-4)   (deg)  1-2  1-3  2-3
--------------------------------------------------------------------------------
Si    c O     s O     s  2.097        0.0000    0.0000   109.470 0.00 0.00 0.00
                                                                 2.20 2.20 3.80
--------------------------------------------------------------------------------

********************************************************************************
*  Output for configuration   1 : quartz                                       *
********************************************************************************


  Components of energy : 

--------------------------------------------------------------------------------
  Interatomic potentials     =         103.20999232 eV
  Three-body potentials      =           0.05739430 eV
  Monopole - monopole (real) =        -110.50584923 eV
  Monopole - monopole (recip)=        -379.15713036 eV
  Monopole - monopole (total)=        -489.66297958 eV
--------------------------------------------------------------------------------
  Total lattice energy       =        -386.39559297 eV
--------------------------------------------------------------------------------
  Total lattice energy       =          -37281.2681 kJ/(mole unit cells)
--------------------------------------------------------------------------------


  Number of variables =        9

  Maximum number of calculations  =          1000
  Maximum Hessian update interval =            10
  Maximum step size               =   1.000000000
  Maximum parameter tolerance     =   0.000010000
  Maximum function  tolerance     =   0.000010000
  Maximum gradient  tolerance     =   0.001000000
  Maximum gradient  component     =   0.010000000

  Symmetry constrained optimisation

  Symmetry used for second derivatives

  Cell parameters to be optimised using strains

  Newton-Raphson optimiser to be used

  BFGS hessian update to be used

  Start of bulk optimisation :

  Cycle:      0 Energy:      -386.395593  Gnorm:      3.533409  CPU:    0.009
  ** Hessian calculated **
  Cycle:      1 Energy:      -386.457497  Gnorm:      0.261565  CPU:    0.013
  Cycle:      2 Energy:      -386.458436  Gnorm:      0.111260  CPU:    0.016
  Cycle:      3 Energy:      -386.458959  Gnorm:      0.025941  CPU:    0.019


  **** Optimisation achieved ****


  Final energy =    -386.45896247 eV
  Final Gnorm  =       0.00074401

  Components of energy : 

--------------------------------------------------------------------------------
  Interatomic potentials     =         107.02048518 eV
  Three-body potentials      =           0.04838491 eV
  Monopole - monopole (real) =        -108.22453976 eV
  Monopole - monopole (recip)=        -385.30329281 eV
  Monopole - monopole (total)=        -493.52783257 eV
--------------------------------------------------------------------------------
  Total lattice energy       =        -386.45896247 eV
--------------------------------------------------------------------------------
  Total lattice energy       =          -37287.3823 kJ/(mole unit cells)
--------------------------------------------------------------------------------

  Final asymmetric unit coordinates :

--------------------------------------------------------------------------------
   No.  Atomic        x           y           z         Radius
        Label       (Frac)      (Frac)      (Frac)       (Angs) 
--------------------------------------------------------------------------------
     1  Si    c     0.463540    0.000000    0.333333    0.000000
     2  O     c     0.408012    0.278918    0.225108    0.000000
     3  O     s     0.428010    0.276248    0.213153    0.000000
--------------------------------------------------------------------------------

  Final Cartesian lattice vectors (Angstroms) :

        4.827098    0.000000    0.000000
       -2.413549    4.180389    0.000000
        0.000000    0.000000    5.337213


  Final cell parameters and derivatives :

--------------------------------------------------------------------------------
       a            4.827098 Angstrom     dE/de1(xx)     0.001416 eV/strain
       b            4.827098 Angstrom     dE/de2(yy)     0.000000 eV/strain
       c            5.337213 Angstrom     dE/de3(zz)    -0.001932 eV/strain
       alpha       90.000000 Degrees      dE/de4(yz)     0.000000 eV/strain
       beta        90.000000 Degrees      dE/de5(xz)     0.000000 eV/strain
       gamma      120.000000 Degrees      dE/de6(xy)     0.000000 eV/strain
--------------------------------------------------------------------------------

  Primitive cell volume =           107.700399 Angs**3

  Density of cell =      2.779471 g/cm**3

  Non-primitive cell volume =           107.700399 Angs**3


  Final internal derivatives :

--------------------------------------------------------------------------------
   No.  Atomic          a             b             c           Radius
        Label          (eV)          (eV)          (eV)        (eV/Angs)
--------------------------------------------------------------------------------
      1 Si    c       0.002936      0.000000      0.000000      0.000000
      2 O     c      -0.001728      0.004290      0.001074      0.000000
      3 O     s       0.002338     -0.001227     -0.000978      0.000000
--------------------------------------------------------------------------------
  Maximum abs         0.002936      0.004290      0.001074      0.000000
--------------------------------------------------------------------------------

  Comparison of initial and final structures : 

--------------------------------------------------------------------------------
  Parameter   Initial value   Final value   Difference    Units      Percent
--------------------------------------------------------------------------------
    Volume       113.097184    107.700399    -5.396785    Angs**3     -4.77
    a              4.914730      4.827098    -0.087632    Angstroms   -1.78
    b              4.914730      4.827098    -0.087632    Angstroms   -1.78
    c              5.406570      5.337213    -0.069357    Angstroms   -1.28
    alpha         90.000000     90.000000     0.000000    Degrees      0.00
    beta          90.000000     90.000000     0.000000    Degrees      0.00
    gamma        120.000000    120.000000     0.000000    Degrees      0.00
      1 x          0.468200      0.463540     0.004660    Fractional   1.00
      1 y          0.000000      0.000000     0.000000    Fractional   0.00
      1 z          0.333333      0.333333     0.000000    Fractional   0.00
      2 x          0.413100      0.408012     0.005088    Fractional   1.23
      2 y          0.266100      0.278918     0.012818    Fractional   4.82
      2 z          0.213100      0.225108     0.012008    Fractional   5.63
      3 x          0.431522      0.428010     0.003512    Fractional   0.81
      3 y          0.266445      0.276248     0.009803    Fractional   3.68
      3 z          0.204492      0.213153     0.008661    Fractional   4.24
--------------------------------------------------------------------------------


  Born effective charge tensors : 

-------------------------------------------------------------------------------
  Atom             x           y             z
-------------------------------------------------------------------------------
   1 Si    x       3.1535      0.0000      0.0000
           y       0.0000      3.5630      0.3410
           z       0.0000     -0.1983      3.4588
-------------------------------------------------------------------------------
   2 O     x      -1.4075      0.3813     -0.2536
           y       0.3769     -1.9508      0.5354
           z      -0.1668      0.5949     -1.7294
-------------------------------------------------------------------------------




  Elastic Constant Matrix: (Units=GPa)

-------------------------------------------------------------------------------
  Indices      1         2         3         4         5         6    
-------------------------------------------------------------------------------
       1     95.1455   18.8290   20.0088  -14.4076    0.0000    0.0000
       2     18.8290   95.1455   20.0088   14.4076   -0.0000   -0.0000
       3     20.0088   20.0088  116.9088   -0.0000    0.0000   -0.0000
       4    -14.4076   14.4076   -0.0000   50.2683    0.0000   -0.0000
       5      0.0000   -0.0000    0.0000    0.0000   50.2683  -14.4076
       6      0.0000   -0.0000   -0.0000   -0.0000  -14.4076   38.1582
-------------------------------------------------------------------------------


  Elastic Compliance Matrix: (Units=1/GPa)

-------------------------------------------------------------------------------
  Indices      1         2         3         4         5         6    
-------------------------------------------------------------------------------
       1    0.012014 -0.002679 -0.001598  0.004211 -0.000000 -0.000000
       2   -0.002679  0.012014 -0.001598 -0.004211  0.000000  0.000000
       3   -0.001598 -0.001598  0.009101 -0.000000  0.000000  0.000000
       4    0.004211 -0.004211 -0.000000  0.022307 -0.000000  0.000000
       5   -0.000000  0.000000  0.000000 -0.000000  0.022307  0.008423
       6   -0.000000  0.000000  0.000000  0.000000  0.008423  0.029387
-------------------------------------------------------------------------------

  Mechanical properties :

-------------------------------------------------------------------------------
  Convention :                    Reuss         Voigt         Hill
-------------------------------------------------------------------------------
  Bulk  Modulus (GPa)     =      46.77348      47.21035      46.99192
  Shear Modulus (GPa)     =      39.68064      44.29585      41.98824
-------------------------------------------------------------------------------
  Velocity S-wave (km/s)  =       3.77840       3.99209       3.88672
  Velocity P-wave (km/s)  =       5.98860       6.18340       6.08678
-------------------------------------------------------------------------------
  Compressibility (1/GPa) =    0.02137963
-------------------------------------------------------------------------------
  Stress axis :                     x             y             z
-------------------------------------------------------------------------------
  Youngs Moduli (GPa)     =      83.23527      83.23527     109.88352
-------------------------------------------------------------------------------
  Poissons Ratio (x)      =                     0.22301       0.17556
  Poissons Ratio (y)      =       0.22301                     0.17556
  Poissons Ratio (z)      =       0.13298       0.13298
-------------------------------------------------------------------------------


  Piezoelectric Strain Matrix: (Units=C/m**2)

-------------------------------------------------------------------------------
  Indices      1         2         3         4         5         6    
-------------------------------------------------------------------------------
       x     2.68886  -2.68886  -0.00000  -1.42886   0.00000   0.00000
       y     0.00000  -0.00000  -0.00000   0.00000   1.42886  -2.68886
       z    -0.00000  -0.00000   0.00000   0.00000   0.00000  -0.00000
-------------------------------------------------------------------------------


  Piezoelectric Stress Matrix: (Units=10**-11 C/N)

-------------------------------------------------------------------------------
  Indices      1         2         3         4         5         6    
-------------------------------------------------------------------------------
       x     3.34912  -3.34912  -0.00000  -0.92265   0.00000   0.00000
       y     0.00000  -0.00000  -0.00000   0.00000   0.92265  -6.69824
       z    -0.00000  -0.00000   0.00000   0.00000   0.00000  -0.00000
-------------------------------------------------------------------------------


  Static dielectric constant tensor : 

-------------------------------------------------------------------------------
              x         y         z
-------------------------------------------------------------------------------
       x     4.78512  -0.00000  -0.00000
       y    -0.00000   4.78512   0.00000
       z    -0.00000   0.00000   5.05739
--------------------------------------------------------------------------------

  High frequency dielectric constant tensor : 

-------------------------------------------------------------------------------
              x         y         z
-------------------------------------------------------------------------------
       x     2.12551  -0.00000   0.00000
       y    -0.00000   2.12551  -0.00000
       z     0.00000  -0.00000   2.14912
-------------------------------------------------------------------------------

  Static refractive indices : 

-------------------------------------------------------------------------------
    1 =    2.18749      2 =    2.18749      3 =    2.24886
-------------------------------------------------------------------------------

  High frequency refractive indices : 

-------------------------------------------------------------------------------
    1 =    1.45791      2 =    1.45791      3 =    1.46599
-------------------------------------------------------------------------------


  Phonon Calculation : 

  Number of k points for this configuration =        1

--------------------------------------------------------------------------------
  K point      1 =   0.000000  0.000000  0.000000  Weight =    1.000
--------------------------------------------------------------------------------

  Frequencies (cm-1) [NB: Negative implies an imaginary mode]:

   -0.00   -0.00    0.00  146.78  146.78  232.34  271.78  271.78  326.76
  339.54  398.42  398.42  440.58  440.58  468.30  509.59  719.04  719.04
  815.98  824.39  824.39  886.31  886.31  886.31  901.53 1016.82 1016.82


--------------------------------------------------------------------------------
  Phonon properties (per mole of unit cells): Temperature =      0.000 K
--------------------------------------------------------------------------------
  Zero point energy            =        0.860987 eV
--------------------------------------------------------------------------------

  Phonon density of states : 

--------------------------------------------------------------------------------
 Frequency (cm-1) Density of States                                             
--------------------------------------------------------------------------------
    0.00000 |********************                                          0.040
   15.88776 |                                                              0.000
   31.77552 |                                                              0.000
   47.66328 |                                                              0.000
   63.55103 |                                                              0.000
   79.43879 |                                                              0.000
   95.32655 |                                                              0.000
  111.21431 |                                                              0.000
  127.10207 |                                                              0.000
  142.98983 |****************************************                      0.080
  158.87759 |                                                              0.000
  174.76535 |                                                              0.000
  190.65310 |                                                              0.000
  206.54086 |                                                              0.000
  222.42862 |********************                                          0.040
  238.31638 |                                                              0.000
  254.20414 |                                                              0.000
  270.09190 |****************************************                      0.080
  285.97966 |                                                              0.000
  301.86741 |                                                              0.000
  317.75517 |********************                                          0.040
  333.64293 |********************                                          0.040
  349.53069 |                                                              0.000
  365.41845 |                                                              0.000
  381.30621 |                                                              0.000
  397.19397 |****************************************                      0.080
  413.08173 |                                                              0.000
  428.96948 |****************************************                      0.080
  444.85724 |                                                              0.000
  460.74500 |********************                                          0.040
  476.63276 |                                                              0.000
  492.52052 |                                                              0.000
  508.40828 |********************                                          0.040
  524.29604 |                                                              0.000
  540.18380 |                                                              0.000
  556.07155 |                                                              0.000
  571.95931 |                                                              0.000
  587.84707 |                                                              0.000
  603.73483 |                                                              0.000
  619.62259 |                                                              0.000
  635.51035 |                                                              0.000
  651.39811 |                                                              0.000
  667.28586 |                                                              0.000
  683.17362 |                                                              0.000
  699.06138 |                                                              0.000
  714.94914 |****************************************                      0.080
  730.83690 |                                                              0.000
  746.72466 |                                                              0.000
  762.61242 |                                                              0.000
  778.50018 |                                                              0.000
  794.38793 |                                                              0.000
  810.27569 |************************************************************  0.120
  826.16345 |                                                              0.000
  842.05121 |                                                              0.000
  857.93897 |                                                              0.000
  873.82673 |************************************************************  0.120
  889.71449 |********************                                          0.040
  905.60224 |                                                              0.000
  921.49000 |                                                              0.000
  937.37776 |                                                              0.000
  953.26552 |                                                              0.000
  969.15328 |                                                              0.000
  985.04104 |                                                              0.000
 1000.92880 |****************************************                      0.080
--------------------------------------------------------------------------------



  Time to end of optimisation =       0.0375 seconds


  Peak dynamic memory used =       0.57 MB 


  Timing analysis for GULP :

--------------------------------------------------------------------------------
  Task / Subroutine                                          Time (Seconds)
--------------------------------------------------------------------------------
  Calculation of reciprocal space energy and derivatives          0.0024
  Calculation of reciprocal space energy using symmetry           0.0019
  Calculation of real space energy and derivatives                0.0102
  Calculation of real space energy using symmetry                 0.0121
  Calculation of three-body energy and derivatives                0.0015
  Calculation of phonons                                          0.0043
  Calculation of scattering                                       0.0000
  Calculation of matrix inversion                                 0.0001
  Symmetry generation of equivalent positions                     0.0005
--------------------------------------------------------------------------------
  Total CPU time                                                  0.0377
--------------------------------------------------------------------------------


  Job Finished at 11:02.11 24th February   2015                               

