********************************************************************************
*                       GENERAL UTILITY LATTICE PROGRAM                        *
*                                 Julian Gale                                  *
*                      Nanochemistry Research Institute                        *
*                           Department of Chemistry                            *
*                    Curtin University, Western Australia                      *
********************************************************************************
* Version = 4.3.0 * Last modified =  14th June 2014                            *
********************************************************************************
*  optimise     - perform optimisation run                                     *
*  conp         - constant pressure calculation                                *
*  property     - calculate properties for final geometry                      *
*  phonon       - calculate phonons for final geometry                         *
*  molmec       - molecule option activated, Coulomb subtract 1-2/1-3 terms    *
********************************************************************************

  Job Started  at 11:06.33 23rd February   2015                               

  Number of CPUs =     1


  Total number of configurations input =   2

********************************************************************************
*  Input for Configuration =   1 : chabazite                                   *
********************************************************************************

  Formula = Si12O24                                                     

  Number of irreducible atoms/shells =       5


  Total number atoms/shells =      36

  Dimensionality = 3               :  Bulk   


  Symmetry :

  Crystal family                   :  Hexagonal   
  Crystal class  (Groth - 1921)    :  Ditrigonal Scalenohedral             

  Space group (centrosymmetric)    :  R -3 M          

  Patterson group                  :  R -3 m   

  Cartesian lattice vectors (Angstroms) :

        6.901286    3.984460    5.025094
       -6.901286    3.984460    5.025094
        0.000000   -7.968919    5.025094

  Cell parameters (Angstroms/Degrees):

  a =       9.4210    alpha =  94.2000
  b =       9.4210    beta  =  94.2000
  c =       9.4210    gamma =  94.2000

  Initial cell volume =         829.077085 Angs**3

  Temperature of configuration =  0.000     K 

  Pressure of configuration =         0.000 GPa 

  Fractional coordinates of asymmetric unit :

--------------------------------------------------------------------------------
   No.  Atomic       x           y          z         Charge      Occupancy
        Label      (Frac)      (Frac)     (Frac)        (e)         (Frac)  
--------------------------------------------------------------------------------
      1 Si    c    0.102192 *  0.331083 *  0.876169 *   2.10000    1.000000    
      2 O3    c    0.261344 *  0.738656    0.000000    -1.05000    1.000000    
      3 O3    c    0.141729 *  0.858271    0.500000    -1.05000    1.000000    
      4 O3    c    0.246729 *  0.246729    0.890290 *  -1.05000    1.000000    
      5 O3    c    0.018968 *  0.018968    0.314454 *  -1.05000    1.000000    
--------------------------------------------------------------------------------



  Molecule list generated from bond lengths :

  Total number of molecules =     0

  Constraints : 

--------------------------------------------------------------------------------
  Constraint no.      Unconstrained     Constrained    Coefficient    Offset
                         Variable         Variable
--------------------------------------------------------------------------------
           1              Strain 1        Strain 2       1.00000      0.0000
           2                 4 x             4 y         2.00000     -1.0000
           3                 5 x             5 y         2.00000     -1.0000
--------------------------------------------------------------------------------


********************************************************************************
*  Input for Configuration =   2 : quartz                                      *
********************************************************************************

  Formula = Si3O6                                                       

  Number of irreducible atoms/shells =       2


  Total number atoms/shells =       9

  Dimensionality = 3               :  Bulk   


  Symmetry :

  Crystal family                   :  Hexagonal   
  Crystal class  (Groth - 1921)    :  Trigonal Trapezohedral               

  Space group (noncentrosymmetric) :  P 31 2 1        

  Patterson group                  :  P -3 m 1 

  Cartesian lattice vectors (Angstroms) :

        4.914730    0.000000    0.000000
       -2.457365    4.256281    0.000000
        0.000000    0.000000    5.406570

  Cell parameters (Angstroms/Degrees):

  a =       4.9147    alpha =  90.0000
  b =       4.9147    beta  =  90.0000
  c =       5.4066    gamma = 120.0000

  Initial cell volume =         113.097184 Angs**3

  Temperature of configuration =  0.000     K 

  Pressure of configuration =         0.000 GPa 

  Fractional coordinates of asymmetric unit :

--------------------------------------------------------------------------------
   No.  Atomic       x           y          z         Charge      Occupancy
        Label      (Frac)      (Frac)     (Frac)        (e)         (Frac)  
--------------------------------------------------------------------------------
      1 Si    c    0.468200 *  0.000000    0.333333     2.10000    1.000000    
      2 O3    c    0.413100 *  0.266100 *  0.213100 *  -1.05000    1.000000    
--------------------------------------------------------------------------------



  Molecule list generated from bond lengths :

  Total number of molecules =     0

  Constraints : 

--------------------------------------------------------------------------------
  Constraint no.      Unconstrained     Constrained    Coefficient    Offset
                         Variable         Variable
--------------------------------------------------------------------------------
           1              Strain 1        Strain 2       1.00000      0.0000
--------------------------------------------------------------------------------


********************************************************************************
*  General input information                                                   *
********************************************************************************

  Species output for all configurations : 

--------------------------------------------------------------------------------
  Species    Type    Atomic    Atomic    Charge       Radii (Angs)     Library
                     Number     Mass       (e)     Cova   Ionic  VDW   Symbol
--------------------------------------------------------------------------------
    O3       Core        8      16.00  -1.050000   0.730  0.000  1.360          
    Si       Core       14      28.09   2.100000   0.000  0.000  2.100          
--------------------------------------------------------------------------------


  Lattice summation method               =    Ewald          (3-D)
                                         =    Parry          (2-D)
                                         =    Saunders et al (1-D)
  Accuracy factor for lattice sums       =   12.000


  Time limit = Infinity

  Maximum range for interatomic potentials =         8.500000 Angstroms

  Taper potentials to zero over   0.5000 Angstroms using polynomial

  Intermolecular potentials :

--------------------------------------------------------------------------------
Atom  Types   Potential         A         B         C         D     Cutoffs(Ang)
  1     2                                                            Min    Max 
--------------------------------------------------------------------------------
O3   c O3   c Lenn/es 12  6 0.674E-02  3.55      0.00      0.00     0.000  8.500
O3   c Si   c Lenn/es 12  6 0.232E-04  3.63      0.00      0.00     0.000  8.500
Si   c Si   c Lenn/es 12  6 0.798E-07  3.71      0.00      0.00     0.000  8.500
--------------------------------------------------------------------------------

  General Three-body potentials :

  Harmonic form:

--------------------------------------------------------------------------------
Atom    Atom    Atom           Force Constants            Theta     Cutoffs  
  1       2       3     (eVrad**-2/eVrad**-3/eVrad**-4)   (deg)  1-2  1-3  2-3
--------------------------------------------------------------------------------
O3    c Si    c Si    c  10.00        0.0000    0.0000   141.000 0.00 0.00 0.00
                                                                 2.20 2.20 3.80
--------------------------------------------------------------------------------

********************************************************************************
*  Output for configuration   1 : chabazite                                    *
********************************************************************************


  Components of energy : 

--------------------------------------------------------------------------------
  Interatomic potentials     =          26.81708376 eV
  Three-body potentials      =           3.08543571 eV
  Monopole - monopole (real) =        -354.89281458 eV
  Monopole - monopole (recip)=        -163.57982847 eV
  Monopole - monopole (total)=        -518.47264305 eV
--------------------------------------------------------------------------------
  Total lattice energy : 
    Primitive unit cell      =        -488.57012357 eV
    Non-primitive unit cell  =       -1465.71037072 eV
--------------------------------------------------------------------------------
  Total lattice energy (in kJmol-1): 
    Primitive unit cell      =          -47139.5484 kJ/(mole unit cells)
    Non-primitive unit cell  =         -141418.6453 kJ/(mole unit cells)
--------------------------------------------------------------------------------


  Number of variables =       11

  Maximum number of calculations  =          1000
  Maximum Hessian update interval =            10
  Maximum step size               =   1.000000000
  Maximum parameter tolerance     =   0.000010000
  Maximum function  tolerance     =   0.000010000
  Maximum gradient  tolerance     =   0.001000000
  Maximum gradient  component     =   0.010000000

  Symmetry constrained optimisation

  Symmetry used for second derivatives

  Cell parameters to be optimised using strains

  Newton-Raphson optimiser to be used

  BFGS hessian update to be used

  Start of bulk optimisation :

  Cycle:      0 Energy:      -488.570124  Gnorm:     18.116063  CPU:    0.010
  ** Hessian calculated **
  Cycle:      1 Energy:      -491.517623  Gnorm:      6.369866  CPU:    0.016
  Cycle:      2 Energy:      -491.603599  Gnorm:      3.459582  CPU:    0.022
  Cycle:      3 Energy:      -491.619109  Gnorm:      0.751937  CPU:    0.028
  Cycle:      4 Energy:      -491.620136  Gnorm:      0.122186  CPU:    0.034
  Cycle:      5 Energy:      -491.620196  Gnorm:      0.041325  CPU:    0.040
  Cycle:      6 Energy:      -491.620199  Gnorm:      0.020254  CPU:    0.046
  Cycle:      7 Energy:      -491.620199  Gnorm:      0.003706  CPU:    0.053


  **** Optimisation achieved ****


  Final energy =    -491.62019894 eV
  Final Gnorm  =       0.00048714

  Components of energy : 

--------------------------------------------------------------------------------
  Interatomic potentials     =          40.57200430 eV
  Three-body potentials      =           2.12688052 eV
  Monopole - monopole (real) =        -364.73065618 eV
  Monopole - monopole (recip)=        -169.58842757 eV
  Monopole - monopole (total)=        -534.31908376 eV
--------------------------------------------------------------------------------
  Total lattice energy : 
    Primitive unit cell      =        -491.62019894 eV
    Non-primitive unit cell  =       -1474.86059681 eV
--------------------------------------------------------------------------------
  Total lattice energy (in kJmol-1): 
    Primitive unit cell      =          -47433.8341 kJ/(mole unit cells)
    Non-primitive unit cell  =         -142301.5023 kJ/(mole unit cells)
--------------------------------------------------------------------------------

  Final asymmetric unit coordinates :

--------------------------------------------------------------------------------
   No.  Atomic        x           y           z         Radius
        Label       (Frac)      (Frac)      (Frac)       (Angs) 
--------------------------------------------------------------------------------
     1  Si    c     0.105028    0.332262    0.877980    0.000000
     2  O3    c     0.259178    0.740822    0.000000    0.000000
     3  O3    c     0.144464    0.855536    0.500000    0.000000
     4  O3    c     0.252751    0.252751    0.891616    0.000000
     5  O3    c     0.023069    0.023069    0.314145    0.000000
--------------------------------------------------------------------------------

  Final Cartesian lattice vectors (Angstroms) :

        6.676124    3.854462    4.814338
       -6.676124    3.854462    4.814338
        0.000000   -7.708924    4.814338


  Final cell parameters and derivatives :

--------------------------------------------------------------------------------
       a            9.088749 Angstrom     dE/de1(xx)    -0.000689 eV/strain
       b            9.088749 Angstrom     dE/de2(yy)     0.000000 eV/strain
       c            9.088749 Angstrom     dE/de3(zz)    -0.000084 eV/strain
       alpha       94.538105 Degrees      dE/de4(yz)     0.000000 eV/strain
       beta        94.538105 Degrees      dE/de5(xz)     0.000000 eV/strain
       gamma       94.538105 Degrees      dE/de6(xy)     0.000000 eV/strain
--------------------------------------------------------------------------------

  Primitive cell volume =           743.320221 Angs**3

  Density of cell =      1.610881 g/cm**3

  Non-primitive lattice parameters :

  a    =    13.352248  b   =    13.352248  c    =    14.443013
  alpha=    90.000000  beta=    90.000000  gamma=   120.000000

  Non-primitive cell volume =          2229.960662 Angs**3


  Final internal derivatives :

--------------------------------------------------------------------------------
   No.  Atomic          a             b             c           Radius
        Label          (eV)          (eV)          (eV)        (eV/Angs)
--------------------------------------------------------------------------------
      1 Si    c      -0.003362      0.002011      0.002737      0.000000
      2 O3    c       0.000356      0.000000      0.000000      0.000000
      3 O3    c      -0.001819      0.000000      0.000000      0.000000
      4 O3    c      -0.001261      0.000000      0.000152      0.000000
      5 O3    c      -0.000583      0.000000     -0.000053      0.000000
--------------------------------------------------------------------------------
  Maximum abs         0.003362      0.002011      0.002737      0.000000
--------------------------------------------------------------------------------


  Born effective charge tensors : 

-------------------------------------------------------------------------------
  Atom             x           y             z
-------------------------------------------------------------------------------
   1 Si    x       2.1000      0.0000      0.0000
           y       0.0000      2.1000      0.0000
           z       0.0000      0.0000      2.1000
-------------------------------------------------------------------------------
   2 O3    x      -1.0500      0.0000      0.0000
           y       0.0000     -1.0500      0.0000
           z       0.0000      0.0000     -1.0500
-------------------------------------------------------------------------------
   3 O3    x      -1.0500      0.0000      0.0000
           y       0.0000     -1.0500      0.0000
           z       0.0000      0.0000     -1.0500
-------------------------------------------------------------------------------
   4 O3    x      -1.0500      0.0000      0.0000
           y       0.0000     -1.0500      0.0000
           z       0.0000      0.0000     -1.0500
-------------------------------------------------------------------------------
   5 O3    x      -1.0500      0.0000      0.0000
           y       0.0000     -1.0500      0.0000
           z       0.0000      0.0000     -1.0500
-------------------------------------------------------------------------------




  Elastic Constant Matrix: (Units=GPa)

-------------------------------------------------------------------------------
  Indices      1         2         3         4         5         6    
-------------------------------------------------------------------------------
       1    175.4005   95.8730   87.0664   10.8574    0.0000    0.0000
       2     95.8730  175.4005   87.0664  -10.8574    0.0000    0.0000
       3     87.0664   87.0664  145.5828   -0.0000    0.0000    0.0000
       4     10.8574  -10.8574   -0.0000   40.7342    0.0000    0.0000
       5      0.0000    0.0000    0.0000    0.0000   40.7342   10.8574
       6      0.0000    0.0000    0.0000    0.0000   10.8574   39.7637
-------------------------------------------------------------------------------


  Elastic Compliance Matrix: (Units=1/GPa)

-------------------------------------------------------------------------------
  Indices      1         2         3         4         5         6    
-------------------------------------------------------------------------------
       1    0.009772 -0.003789 -0.003578 -0.003615 -0.000000 -0.000000
       2   -0.003789  0.009772 -0.003578  0.003615 -0.000000 -0.000000
       3   -0.003578 -0.003578  0.011149  0.000000 -0.000000  0.000000
       4   -0.003615  0.003615  0.000000  0.026476 -0.000000 -0.000000
       5   -0.000000 -0.000000 -0.000000 -0.000000  0.026476 -0.007229
       6   -0.000000 -0.000000  0.000000 -0.000000 -0.007229  0.027122
-------------------------------------------------------------------------------

  Mechanical properties :

-------------------------------------------------------------------------------
  Convention :                    Reuss         Voigt         Hill
-------------------------------------------------------------------------------
  Bulk  Modulus (GPa)     =     113.60715     115.15506     114.38111
  Shear Modulus (GPa)     =      36.87478      39.33828      38.10653
-------------------------------------------------------------------------------
  Velocity S-wave (km/s)  =       4.78446       4.94169       4.86371
  Velocity P-wave (km/s)  =      10.05218      10.20030      10.12651
-------------------------------------------------------------------------------
  Compressibility (1/GPa) =    0.00880226
-------------------------------------------------------------------------------
  Stress axis :                     x             y             z
-------------------------------------------------------------------------------
  Youngs Moduli (GPa)     =     102.33050     102.33050      89.69409
-------------------------------------------------------------------------------
  Poissons Ratio (x)      =                     0.38773       0.32095
  Poissons Ratio (y)      =       0.38773                     0.32095
  Poissons Ratio (z)      =       0.36617       0.36617
-------------------------------------------------------------------------------


  Piezoelectric Strain Matrix: (Units=C/m**2)

-------------------------------------------------------------------------------
  Indices      1         2         3         4         5         6    
-------------------------------------------------------------------------------
       x     0.00000   0.00000   0.00000  -0.00000   0.00000   0.00000
       y    -0.00000  -0.00000  -0.00000   0.00000  -0.00000   0.00000
       z    -0.00000  -0.00000  -0.00000   0.00000   0.00000   0.00000
-------------------------------------------------------------------------------


  Piezoelectric Stress Matrix: (Units=10**-11 C/N)

-------------------------------------------------------------------------------
  Indices      1         2         3         4         5         6    
-------------------------------------------------------------------------------
       x     0.00000  -0.00000   0.00000  -0.00000   0.00000   0.00000
       y    -0.00000   0.00000   0.00000   0.00000  -0.00000   0.00000
       z    -0.00000   0.00000  -0.00000   0.00000   0.00000   0.00000
-------------------------------------------------------------------------------


  Static dielectric constant tensor : 

-------------------------------------------------------------------------------
              x         y         z
-------------------------------------------------------------------------------
       x     1.53190  -0.00000   0.00000
       y    -0.00000   1.53190  -0.00000
       z     0.00000  -0.00000   1.61011
--------------------------------------------------------------------------------

  Static refractive indices : 

-------------------------------------------------------------------------------
    1 =    1.23770      2 =    1.23770      3 =    1.26890
-------------------------------------------------------------------------------


  Phonon Calculation : 

  Number of k points for this configuration =        1

--------------------------------------------------------------------------------
  K point      1 =   0.000000  0.000000  0.000000  Weight =    1.000
--------------------------------------------------------------------------------

  Frequencies (cm-1) [NB: Negative implies an imaginary mode]:

   -0.00    0.00    0.00  102.43  102.43  130.95  151.94  174.28  174.28
  186.78  186.78  189.71  199.88  199.88  202.06  245.39  245.39  262.66
  280.23  280.23  283.23  286.26  300.05  300.05  332.72  332.72  344.49
  359.05  370.89  370.89  401.50  401.80  416.71  420.46  420.46  439.03
  439.38  439.38  457.63  457.63  461.49  461.49  492.81  502.29  505.51
  505.51  510.82  510.82  524.56  542.45  542.45  576.33  576.33  618.98
  621.43  627.71  627.71  628.81  628.81  653.26  766.05  775.73  779.78
  779.78  815.32  815.32  833.35  833.35  844.41  858.92  859.09  859.09
  873.59  873.59  886.47  890.93  890.93  913.68  920.69  920.69  928.28
  931.46  940.46  940.46  963.36  974.63  974.63  978.30  978.30  989.68
  993.63 1004.49 1004.49 1018.36 1021.33 1021.33 1038.98 1100.98 1100.98
 1123.11 1123.11 1156.46 1181.26 1186.20 1186.20 1217.08 1217.08 1279.02


--------------------------------------------------------------------------------
  Phonon properties (per mole of unit cells): Temperature =      0.000 K
--------------------------------------------------------------------------------
  Zero point energy            =        4.251048 eV
--------------------------------------------------------------------------------

  Phonon density of states : 

--------------------------------------------------------------------------------
 Frequency (cm-1) Density of States                                             
--------------------------------------------------------------------------------
    0.00000 |************************                                      0.019
   19.98466 |                                                              0.000
   39.96932 |                                                              0.000
   59.95398 |                                                              0.000
   79.93864 |                                                              0.000
   99.92330 |************************                                      0.019
  119.90795 |************                                                  0.009
  139.89261 |************                                                  0.009
  159.87727 |************************                                      0.019
  179.86193 |************************************                          0.028
  199.84659 |************************************                          0.028
  219.83125 |                                                              0.000
  239.81591 |************************                                      0.019
  259.80057 |************                                                  0.009
  279.78523 |************************************************              0.037
  299.76989 |************************                                      0.019
  319.75455 |************************                                      0.019
  339.73921 |************************                                      0.019
  359.72386 |************************                                      0.019
  379.70852 |                                                              0.000
  399.69318 |************************************                          0.028
  419.67784 |************************************************************  0.047
  439.66250 |************************                                      0.019
  459.64716 |************************                                      0.019
  479.63182 |************                                                  0.009
  499.61648 |************************************************************  0.047
  519.60114 |************                                                  0.009
  539.58580 |************************                                      0.019
  559.57046 |************************                                      0.019
  579.55511 |                                                              0.000
  599.53977 |************                                                  0.009
  619.52443 |************************************************************  0.047
  639.50909 |************                                                  0.009
  659.49375 |                                                              0.000
  679.47841 |                                                              0.000
  699.46307 |                                                              0.000
  719.44773 |                                                              0.000
  739.43239 |                                                              0.000
  759.41705 |************************                                      0.019
  779.40171 |************************                                      0.019
  799.38636 |************************                                      0.019
  819.37102 |************************                                      0.019
  839.35568 |************************************************              0.037
  859.34034 |************************                                      0.019
  879.32500 |************************************                          0.028
  899.30966 |************                                                  0.009
  919.29432 |************************************************              0.037
  939.27898 |************************                                      0.019
  959.26364 |************************************************************  0.047
  979.24830 |************************                                      0.019
  999.23296 |************************************                          0.028
 1019.21762 |************************************                          0.028
 1039.20227 |                                                              0.000
 1059.18693 |                                                              0.000
 1079.17159 |                                                              0.000
 1099.15625 |************************                                      0.019
 1119.14091 |************************                                      0.019
 1139.12557 |************                                                  0.009
 1159.11023 |                                                              0.000
 1179.09489 |************************************                          0.028
 1199.07955 |************************                                      0.019
 1219.06421 |                                                              0.000
 1239.04887 |                                                              0.000
 1259.03352 |************                                                  0.009
--------------------------------------------------------------------------------



  Time to end of optimisation =       0.1111 seconds


********************************************************************************
*  Output for configuration   2 : quartz                                       *
********************************************************************************


  Components of energy : 

--------------------------------------------------------------------------------
  Interatomic potentials     =           7.54498978 eV
  Three-body potentials      =           0.08695664 eV
  Monopole - monopole (real) =         -60.40963923 eV
  Monopole - monopole (recip)=         -70.58662716 eV
  Monopole - monopole (total)=        -130.99626639 eV
--------------------------------------------------------------------------------
  Total lattice energy       =        -123.36431996 eV
--------------------------------------------------------------------------------
  Total lattice energy       =          -11902.7711 kJ/(mole unit cells)
--------------------------------------------------------------------------------


  Number of variables =        6

  Maximum number of calculations  =          1000
  Maximum Hessian update interval =            10
  Maximum step size               =   1.000000000
  Maximum parameter tolerance     =   0.000010000
  Maximum function  tolerance     =   0.000010000
  Maximum gradient  tolerance     =   0.001000000
  Maximum gradient  component     =   0.010000000

  Symmetry constrained optimisation

  Symmetry used for second derivatives

  Cell parameters to be optimised using strains

  Newton-Raphson optimiser to be used

  BFGS hessian update to be used

  Start of bulk optimisation :

  Cycle:      0 Energy:      -123.364320  Gnorm:      6.874314  CPU:    0.112
  ** Hessian calculated **
  Cycle:      1 Energy:      -123.749194  Gnorm:      0.927712  CPU:    0.114
  Cycle:      2 Energy:      -123.754604  Gnorm:      0.444196  CPU:    0.115
  Cycle:      3 Energy:      -123.755167  Gnorm:      0.071279  CPU:    0.117
  Cycle:      4 Energy:      -123.755179  Gnorm:      0.014316  CPU:    0.118


  **** Optimisation achieved ****


  Final energy =    -123.75518019 eV
  Final Gnorm  =       0.00042690

  Components of energy : 

--------------------------------------------------------------------------------
  Interatomic potentials     =           9.95366300 eV
  Three-body potentials      =           0.06082998 eV
  Monopole - monopole (real) =         -61.49156636 eV
  Monopole - monopole (recip)=         -72.27810682 eV
  Monopole - monopole (total)=        -133.76967317 eV
--------------------------------------------------------------------------------
  Total lattice energy       =        -123.75518019 eV
--------------------------------------------------------------------------------
  Total lattice energy       =          -11940.4831 kJ/(mole unit cells)
--------------------------------------------------------------------------------

  Final asymmetric unit coordinates :

--------------------------------------------------------------------------------
   No.  Atomic        x           y           z         Radius
        Label       (Frac)      (Frac)      (Frac)       (Angs) 
--------------------------------------------------------------------------------
     1  Si    c     0.462659    0.000000    0.333333    0.000000
     2  O3    c     0.420100    0.278311    0.218607    0.000000
--------------------------------------------------------------------------------

  Final Cartesian lattice vectors (Angstroms) :

        4.810415    0.000000    0.000000
       -2.405208    4.165942    0.000000
        0.000000    0.000000    5.265167


  Final cell parameters and derivatives :

--------------------------------------------------------------------------------
       a            4.810415 Angstrom     dE/de1(xx)     0.000273 eV/strain
       b            4.810415 Angstrom     dE/de2(yy)     0.000000 eV/strain
       c            5.265167 Angstrom     dE/de3(zz)    -0.000168 eV/strain
       alpha       90.000000 Degrees      dE/de4(yz)     0.000000 eV/strain
       beta        90.000000 Degrees      dE/de5(xz)     0.000000 eV/strain
       gamma      120.000000 Degrees      dE/de6(xy)     0.000000 eV/strain
--------------------------------------------------------------------------------

  Primitive cell volume =           105.513468 Angs**3

  Density of cell =      2.837080 g/cm**3

  Non-primitive cell volume =           105.513468 Angs**3


  Final internal derivatives :

--------------------------------------------------------------------------------
   No.  Atomic          a             b             c           Radius
        Label          (eV)          (eV)          (eV)        (eV/Angs)
--------------------------------------------------------------------------------
      1 Si    c      -0.000093      0.000000      0.000000      0.000000
      2 O3    c       0.000359     -0.000564      0.002450      0.000000
--------------------------------------------------------------------------------
  Maximum abs         0.000359      0.000564      0.002450      0.000000
--------------------------------------------------------------------------------


  Born effective charge tensors : 

-------------------------------------------------------------------------------
  Atom             x           y             z
-------------------------------------------------------------------------------
   1 Si    x       2.1000      0.0000      0.0000
           y       0.0000      2.1000      0.0000
           z       0.0000      0.0000      2.1000
-------------------------------------------------------------------------------
   2 O3    x      -1.0500      0.0000      0.0000
           y       0.0000     -1.0500      0.0000
           z       0.0000      0.0000     -1.0500
-------------------------------------------------------------------------------




  Elastic Constant Matrix: (Units=GPa)

-------------------------------------------------------------------------------
  Indices      1         2         3         4         5         6    
-------------------------------------------------------------------------------
       1    248.0063   87.5624   99.2836   -8.5267    0.0000    0.0000
       2     87.5624  248.0063   99.2836    8.5267   -0.0000    0.0000
       3     99.2836   99.2836  243.0711    0.0000   -0.0000    0.0000
       4     -8.5267    8.5267    0.0000  102.9199    0.0000   -0.0000
       5      0.0000   -0.0000   -0.0000    0.0000  102.9199   -8.5267
       6      0.0000    0.0000    0.0000   -0.0000   -8.5267   80.2220
-------------------------------------------------------------------------------


  Elastic Compliance Matrix: (Units=1/GPa)

-------------------------------------------------------------------------------
  Indices      1         2         3         4         5         6    
-------------------------------------------------------------------------------
       1    0.005109 -0.001179 -0.001605  0.000521 -0.000000 -0.000000
       2   -0.001179  0.005109 -0.001605 -0.000521  0.000000 -0.000000
       3   -0.001605 -0.001605  0.005425 -0.000000  0.000000  0.000000
       4    0.000521 -0.000521 -0.000000  0.009803 -0.000000  0.000000
       5   -0.000000  0.000000  0.000000 -0.000000  0.009803  0.001042
       6   -0.000000 -0.000000  0.000000  0.000000  0.001042  0.012576
-------------------------------------------------------------------------------

  Mechanical properties :

-------------------------------------------------------------------------------
  Convention :                    Reuss         Voigt         Hill
-------------------------------------------------------------------------------
  Bulk  Modulus (GPa)     =     145.68064     145.70474     145.69269
  Shear Modulus (GPa)     =      84.90174      87.40930      86.15552
-------------------------------------------------------------------------------
  Velocity S-wave (km/s)  =       5.47044       5.55064       5.51069
  Velocity P-wave (km/s)  =       9.55248       9.61440       9.58349
-------------------------------------------------------------------------------
  Compressibility (1/GPa) =    0.00686433
-------------------------------------------------------------------------------
  Stress axis :                     x             y             z
-------------------------------------------------------------------------------
  Youngs Moduli (GPa)     =     195.73449     195.73449     184.32167
-------------------------------------------------------------------------------
  Poissons Ratio (x)      =                     0.23079       0.29587
  Poissons Ratio (y)      =       0.23079                     0.29587
  Poissons Ratio (z)      =       0.31419       0.31419
-------------------------------------------------------------------------------


  Piezoelectric Strain Matrix: (Units=C/m**2)

-------------------------------------------------------------------------------
  Indices      1         2         3         4         5         6    
-------------------------------------------------------------------------------
       x     1.44923  -1.44923  -0.00000  -1.18645   0.00000   0.00000
       y     0.00000  -0.00000  -0.00000   0.00000   1.18645  -1.44923
       z    -0.00000  -0.00000   0.00000   0.00000   0.00000   0.00000
-------------------------------------------------------------------------------


  Piezoelectric Stress Matrix: (Units=10**-11 C/N)

-------------------------------------------------------------------------------
  Indices      1         2         3         4         5         6    
-------------------------------------------------------------------------------
       x     0.84948  -0.84948  -0.00000  -1.01204   0.00000   0.00000
       y     0.00000  -0.00000  -0.00000   0.00000   1.01204  -1.69896
       z    -0.00000  -0.00000   0.00000   0.00000   0.00000   0.00000
-------------------------------------------------------------------------------


  Static dielectric constant tensor : 

-------------------------------------------------------------------------------
              x         y         z
-------------------------------------------------------------------------------
       x     1.71134  -0.00000  -0.00000
       y    -0.00000   1.71134   0.00000
       z    -0.00000   0.00000   1.79176
--------------------------------------------------------------------------------

  Static refractive indices : 

-------------------------------------------------------------------------------
    1 =    1.30818      2 =    1.30818      3 =    1.33857
-------------------------------------------------------------------------------


  Phonon Calculation : 

  Number of k points for this configuration =        1

--------------------------------------------------------------------------------
  K point      2 =   0.000000  0.000000  0.000000  Weight =    1.000
--------------------------------------------------------------------------------

  Frequencies (cm-1) [NB: Negative implies an imaginary mode]:

   -0.00    0.00    0.00  236.20  236.20  296.25  441.66  441.66  497.24
  499.84  499.95  499.95  643.99  643.99  652.81  784.63  784.63  802.68
  911.19  911.19  942.26  973.26  978.22  978.22 1011.53 1188.18 1188.18


--------------------------------------------------------------------------------
  Phonon properties (per mole of unit cells): Temperature =      0.000 K
--------------------------------------------------------------------------------
  Zero point energy            =        1.056596 eV
--------------------------------------------------------------------------------

  Phonon density of states : 

--------------------------------------------------------------------------------
 Frequency (cm-1) Density of States                                             
--------------------------------------------------------------------------------
    0.00000 |******************************                                0.077
   18.56538 |                                                              0.000
   37.13076 |                                                              0.000
   55.69614 |                                                              0.000
   74.26152 |                                                              0.000
   92.82689 |                                                              0.000
  111.39227 |                                                              0.000
  129.95765 |                                                              0.000
  148.52303 |                                                              0.000
  167.08841 |                                                              0.000
  185.65379 |                                                              0.000
  204.21917 |                                                              0.000
  222.78455 |******************************                                0.077
  241.34993 |                                                              0.000
  259.91531 |                                                              0.000
  278.48068 |***************                                               0.038
  297.04606 |                                                              0.000
  315.61144 |                                                              0.000
  334.17682 |                                                              0.000
  352.74220 |                                                              0.000
  371.30758 |                                                              0.000
  389.87296 |                                                              0.000
  408.43834 |                                                              0.000
  427.00372 |******************************                                0.077
  445.56910 |                                                              0.000
  464.13447 |                                                              0.000
  482.69985 |************************************************************  0.154
  501.26523 |                                                              0.000
  519.83061 |                                                              0.000
  538.39599 |                                                              0.000
  556.96137 |                                                              0.000
  575.52675 |                                                              0.000
  594.09213 |                                                              0.000
  612.65751 |                                                              0.000
  631.22289 |******************************                                0.077
  649.78826 |***************                                               0.038
  668.35364 |                                                              0.000
  686.91902 |                                                              0.000
  705.48440 |                                                              0.000
  724.04978 |                                                              0.000
  742.61516 |                                                              0.000
  761.18054 |                                                              0.000
  779.74592 |******************************                                0.077
  798.31130 |***************                                               0.038
  816.87668 |                                                              0.000
  835.44205 |                                                              0.000
  854.00743 |                                                              0.000
  872.57281 |                                                              0.000
  891.13819 |                                                              0.000
  909.70357 |******************************                                0.077
  928.26895 |***************                                               0.038
  946.83433 |                                                              0.000
  965.39971 |*********************************************                 0.115
  983.96509 |                                                              0.000
 1002.53047 |***************                                               0.038
 1021.09584 |                                                              0.000
 1039.66122 |                                                              0.000
 1058.22660 |                                                              0.000
 1076.79198 |                                                              0.000
 1095.35736 |                                                              0.000
 1113.92274 |                                                              0.000
 1132.48812 |                                                              0.000
 1151.05350 |                                                              0.000
 1169.61888 |******************************                                0.077
--------------------------------------------------------------------------------



  Time to end of optimisation =       0.1254 seconds


  Peak dynamic memory used =       0.85 MB 


  Timing analysis for GULP :

--------------------------------------------------------------------------------
  Task / Subroutine                                          Time (Seconds)
--------------------------------------------------------------------------------
  Calculation of reciprocal space energy and derivatives          0.0129
  Calculation of reciprocal space energy using symmetry           0.0093
  Calculation of real space energy and derivatives                0.0386
  Calculation of real space energy using symmetry                 0.0479
  Calculation of three-body energy and derivatives                0.0064
  Calculation of molecules and connectivity                       0.0002
  Calculation of phonons                                          0.0188
  Calculation of scattering                                       0.0000
  Symmetry generation of equivalent positions                     0.0010
--------------------------------------------------------------------------------
  Total CPU time                                                  0.1255
--------------------------------------------------------------------------------


  Job Finished at 11:06.33 23rd February   2015                               

