********************************************************************************
*                       GENERAL UTILITY LATTICE PROGRAM                        *
*                                 Julian Gale                                  *
*                      Nanochemistry Research Institute                        *
*                           Department of Chemistry                            *
*                    Curtin University, Western Australia                      *
********************************************************************************
* Version = 4.3.0 * Last modified =  14th June 2014                            *
********************************************************************************
*  single       - perform a single point run                                   *
*  conp         - constant pressure calculation                                *
*  property     - calculate properties for final geometry                      *
*  phonon       - calculate phonons for final geometry                         *
********************************************************************************

  Job Started  at 22:05.32 26th February   2015                               

  Number of CPUs =     1


  Total number of configurations input =   2

********************************************************************************
*  Input for Configuration =   1 : chabazite                                   *
********************************************************************************

  Formula = Si12O24                                                     

  Number of irreducible atoms/shells =       9


  Total number atoms/shells =      60

  Dimensionality = 3               :  Bulk   


  Symmetry :

  Crystal family                   :  Hexagonal   
  Crystal class  (Groth - 1921)    :  Ditrigonal Scalenohedral             

  Space group (centrosymmetric)    :  R -3 M          

  Patterson group                  :  R -3 m   

  Cartesian lattice vectors (Angstroms) :

        6.901286    3.984460    5.025094
       -6.901286    3.984460    5.025094
        0.000000   -7.968919    5.025094

  Cell parameters (Angstroms/Degrees):

  a =       9.4210    alpha =  94.2000
  b =       9.4210    beta  =  94.2000
  c =       9.4210    gamma =  94.2000

  Initial cell volume =         829.077085 Angs**3

  Temperature of configuration =  0.000     K 

  Pressure of configuration =         0.000 GPa 

  Fractional coordinates of asymmetric unit :

--------------------------------------------------------------------------------
   No.  Atomic       x           y          z         Charge      Occupancy
        Label      (Frac)      (Frac)     (Frac)        (e)         (Frac)  
--------------------------------------------------------------------------------
      1 Si    c    0.102192    0.331083    0.876169     4.00000    1.000000    
      2 O1    c    0.261344    0.738656    0.000000     0.86902    1.000000    
      3 O2    c    0.141729    0.858271    0.500000     0.86902    1.000000    
      4 O3    c    0.246729    0.246729    0.890290     0.86902    1.000000    
      5 O4    c    0.018968    0.018968    0.314454     0.86902    1.000000    
      6 O1    s    0.254283    0.745717    0.000000    -2.86902    1.000000    
      7 O2    s    0.135829    0.864171    0.500000    -2.86902    1.000000    
      8 O3    s    0.240510    0.240510    0.887279    -2.86902    1.000000    
      9 O4    s    0.012617    0.012617    0.318045    -2.86902    1.000000    
--------------------------------------------------------------------------------



********************************************************************************
*  Input for Configuration =   2 : quartz                                      *
********************************************************************************

  Formula = Si3O6                                                       

  Number of irreducible atoms/shells =       3


  Total number atoms/shells =      15

  Dimensionality = 3               :  Bulk   


  Symmetry :

  Crystal family                   :  Hexagonal   
  Crystal class  (Groth - 1921)    :  Trigonal Trapezohedral               

  Space group (noncentrosymmetric) :  P 31 2 1        

  Patterson group                  :  P -3 m 1 

  Cartesian lattice vectors (Angstroms) :

        4.914730    0.000000    0.000000
       -2.457365    4.256281    0.000000
        0.000000    0.000000    5.406570

  Cell parameters (Angstroms/Degrees):

  a =       4.9147    alpha =  90.0000
  b =       4.9147    beta  =  90.0000
  c =       5.4066    gamma = 120.0000

  Initial cell volume =         113.097184 Angs**3

  Temperature of configuration =  0.000     K 

  Pressure of configuration =         0.000 GPa 

  Fractional coordinates of asymmetric unit :

--------------------------------------------------------------------------------
   No.  Atomic       x           y          z         Charge      Occupancy
        Label      (Frac)      (Frac)     (Frac)        (e)         (Frac)  
--------------------------------------------------------------------------------
      1 Si    c    0.468200    0.000000    0.333333     4.00000    1.000000    
      2 O     c    0.413100    0.266100    0.213100     0.86902    1.000000    
      3 O     s    0.431522    0.266445    0.204492    -2.86902    1.000000    
--------------------------------------------------------------------------------



********************************************************************************
*  General input information                                                   *
********************************************************************************

  Species output for all configurations : 

--------------------------------------------------------------------------------
  Species    Type    Atomic    Atomic    Charge       Radii (Angs)     Library
                     Number     Mass       (e)     Cova   Ionic  VDW   Symbol
--------------------------------------------------------------------------------
    Si       Core       14      28.09   4.000000   1.200  0.000  2.100          
    O        Core        8      16.00   0.869020   0.730  0.000  1.360          
    O        Shell       8       0.00  -2.869020   0.730  0.000  1.360          
--------------------------------------------------------------------------------


  Lattice summation method               =    Ewald          (3-D)
                                         =    Parry          (2-D)
                                         =    Saunders et al (1-D)
  Accuracy factor for lattice sums       =   12.000


  Time limit = Infinity

  Maximum range for interatomic potentials =    100000.000000 Angstroms

  General interatomic potentials :

--------------------------------------------------------------------------------
Atom  Types   Potential         A         B         C         D     Cutoffs(Ang)
  1     2                                                            Min    Max 
--------------------------------------------------------------------------------
Si   c O    s Buckingham    0.128E+04 0.321      10.7      0.00     0.000 12.000
O    s O    s Buckingham    0.228E+05 0.149      27.9      0.00     0.000 12.000
O    c O    s Spring (c-s)   74.9      0.00      0.00      0.00     0.000  0.800
--------------------------------------------------------------------------------

  General Three-body potentials :

  Harmonic form:

--------------------------------------------------------------------------------
Atom    Atom    Atom           Force Constants            Theta     Cutoffs  
  1       2       3     (eVrad**-2/eVrad**-3/eVrad**-4)   (deg)  1-2  1-3  2-3
--------------------------------------------------------------------------------
Si    c O     s O     s  2.097        0.0000    0.0000   109.470 0.00 0.00 0.00
                                                                 2.20 2.20 3.80
--------------------------------------------------------------------------------

********************************************************************************
*  Output for configuration   1 : chabazite                                    *
********************************************************************************


  Components of energy : 

--------------------------------------------------------------------------------
  Interatomic potentials     =         382.05713878 eV
  Three-body potentials      =           0.37924670 eV
  Monopole - monopole (real) =       -1046.63724915 eV
  Monopole - monopole (recip)=        -878.41977365 eV
  Monopole - monopole (total)=       -1925.05702280 eV
--------------------------------------------------------------------------------
  Total lattice energy : 
    Primitive unit cell      =       -1542.62063731 eV
    Non-primitive unit cell  =       -4627.86191193 eV
--------------------------------------------------------------------------------
  Total lattice energy (in kJmol-1): 
    Primitive unit cell      =         -148839.3104 kJ/(mole unit cells)
    Non-primitive unit cell  =         -446517.9312 kJ/(mole unit cells)
--------------------------------------------------------------------------------

  Born effective charge tensors : 

-------------------------------------------------------------------------------
  Atom             x           y             z
-------------------------------------------------------------------------------
   1 Si    x       3.7326      0.0047     -0.5043
           y      -0.0489      2.9984      0.1628
           z      -0.4040      0.2910      3.4115
-------------------------------------------------------------------------------
   2 O1    x      -1.1040      0.0000      0.0000
           y       0.0000     -1.1543     -0.2510
           z       0.0000     -0.0699     -2.6272
-------------------------------------------------------------------------------
   3 O2    x      -1.1218      0.0000     -0.0000
           y       0.0000     -2.4023      1.1166
           z      -0.0000      1.1732     -1.8838
-------------------------------------------------------------------------------
   4 O3    x      -3.0275      0.0000      0.0000
           y      -0.0000     -0.9967     -0.0506
           z      -0.0000     -0.0703     -1.1621
-------------------------------------------------------------------------------
   5 O4    x      -2.4945      0.0000     -0.0000
           y      -0.0000     -1.1609      0.1455
           z       0.0000      0.1267     -1.1499
-------------------------------------------------------------------------------




  Elastic Constant Matrix: (Units=GPa)

-------------------------------------------------------------------------------
  Indices      1         2         3         4         5         6    
-------------------------------------------------------------------------------
       1    122.8001   57.8045   59.4472    6.2943   -0.0000   -0.0000
       2     57.8045  122.8001   59.4472   -6.2943    0.0000    0.0000
       3     59.4472   59.4472  107.2651   -0.0000    0.0000    0.0000
       4      6.2943   -6.2943   -0.0000   34.0183   -0.0000   -0.0000
       5     -0.0000    0.0000    0.0000   -0.0000   34.0183    6.2943
       6     -0.0000    0.0000    0.0000   -0.0000    6.2943   32.4978
-------------------------------------------------------------------------------


  Elastic Compliance Matrix: (Units=1/GPa)

-------------------------------------------------------------------------------
  Indices      1         2         3         4         5         6    
-------------------------------------------------------------------------------
       1    0.012337 -0.003620 -0.004831 -0.002953  0.000000  0.000000
       2   -0.003620  0.012337 -0.004831  0.002953 -0.000000 -0.000000
       3   -0.004831 -0.004831  0.014678  0.000000 -0.000000  0.000000
       4   -0.002953  0.002953  0.000000  0.030489 -0.000000 -0.000000
       5    0.000000 -0.000000 -0.000000 -0.000000  0.030489 -0.005905
       6    0.000000 -0.000000  0.000000 -0.000000 -0.005905  0.031915
-------------------------------------------------------------------------------

  Mechanical properties :

-------------------------------------------------------------------------------
  Convention :                    Reuss         Voigt         Hill
-------------------------------------------------------------------------------
  Bulk  Modulus (GPa)     =      78.20109      78.47366      78.33737
  Shear Modulus (GPa)     =      30.66121      31.85133      31.25627
-------------------------------------------------------------------------------
  Velocity S-wave (km/s)  =       4.60757       4.69614       4.65207
  Velocity P-wave (km/s)  =       9.08034       9.15096       9.11572
-------------------------------------------------------------------------------
  Compressibility (1/GPa) =    0.01278755
-------------------------------------------------------------------------------
  Stress axis :                     x             y             z
-------------------------------------------------------------------------------
  Youngs Moduli (GPa)     =      81.05380      81.05380      68.13026
-------------------------------------------------------------------------------
  Poissons Ratio (x)      =                     0.29342       0.32916
  Poissons Ratio (y)      =       0.29342                     0.32916
  Poissons Ratio (z)      =       0.39159       0.39159
-------------------------------------------------------------------------------


  Piezoelectric Strain Matrix: (Units=C/m**2)

-------------------------------------------------------------------------------
  Indices      1         2         3         4         5         6    
-------------------------------------------------------------------------------
       x     0.00000  -0.00000   0.00000  -0.00000   0.00000   0.00000
       y    -0.00000   0.00000  -0.00000  -0.00000   0.00000  -0.00000
       z     0.00000  -0.00000  -0.00000   0.00000  -0.00000   0.00000
-------------------------------------------------------------------------------


  Piezoelectric Stress Matrix: (Units=10**-11 C/N)

-------------------------------------------------------------------------------
  Indices      1         2         3         4         5         6    
-------------------------------------------------------------------------------
       x     0.00000  -0.00000   0.00000  -0.00000   0.00000   0.00000
       y    -0.00000   0.00000  -0.00000  -0.00000   0.00000  -0.00000
       z     0.00000   0.00000  -0.00000   0.00000  -0.00000   0.00000
-------------------------------------------------------------------------------


  Static dielectric constant tensor : 

-------------------------------------------------------------------------------
              x         y         z
-------------------------------------------------------------------------------
       x     3.02328  -0.00000  -0.00000
       y    -0.00000   3.02328   0.00000
       z    -0.00000   0.00000   3.14698
--------------------------------------------------------------------------------

  High frequency dielectric constant tensor : 

-------------------------------------------------------------------------------
              x         y         z
-------------------------------------------------------------------------------
       x     1.56711  -0.00000  -0.00000
       y    -0.00000   1.56711   0.00000
       z    -0.00000   0.00000   1.57329
-------------------------------------------------------------------------------

  Static refractive indices : 

-------------------------------------------------------------------------------
    1 =    1.73876      2 =    1.73876      3 =    1.77397
-------------------------------------------------------------------------------

  High frequency refractive indices : 

-------------------------------------------------------------------------------
    1 =    1.25184      2 =    1.25184      3 =    1.25431
-------------------------------------------------------------------------------


  Phonon Calculation : 

  Number of k points for this configuration =        1

--------------------------------------------------------------------------------
  K point      1 =   0.000000  0.000000  0.000000  Weight =    1.000
--------------------------------------------------------------------------------

  Frequencies (cm-1) [NB: Negative implies an imaginary mode]:

   -0.00    0.00    0.00  111.68  111.68  136.00  136.00  137.99  142.48
  142.48  144.48  145.39  158.20  162.24  162.24  175.87  181.58  184.81
  184.81  185.16  185.16  238.72  238.72  239.14  266.18  266.18  269.66
  289.44  289.44  293.99  296.49  296.49  303.54  305.53  308.30  309.97
  309.97  322.45  322.45  326.54  350.43  359.20  359.20  391.05  391.05
  391.23  391.23  393.45  393.85  400.48  410.35  410.35  439.42  444.37
  444.37  445.74  454.46  454.46  460.09  460.09  462.73  531.57  531.57
  559.38  559.38  610.92  637.89  641.33  641.33  686.42  686.42  784.20
  784.20  786.20  786.20  790.22  795.64  800.65  800.65  801.66  801.81
  801.81  806.68  813.88  814.26  814.26  817.26  817.26  818.83  820.40
  828.77  829.29  829.29  832.85  832.85  835.80  845.78  960.49 1008.65
 1008.65 1023.72 1025.42 1025.96 1025.96 1032.18 1032.18 1038.62 1038.62


--------------------------------------------------------------------------------
  Phonon properties (per mole of unit cells): Temperature =      0.000 K
--------------------------------------------------------------------------------
  Zero point energy            =        3.433543 eV
--------------------------------------------------------------------------------

  Phonon density of states : 

--------------------------------------------------------------------------------
 Frequency (cm-1) Density of States                                             
--------------------------------------------------------------------------------
    0.00000 |***************                                               0.019
   16.22850 |                                                              0.000
   32.45700 |                                                              0.000
   48.68550 |                                                              0.000
   64.91400 |                                                              0.000
   81.14250 |                                                              0.000
   97.37101 |***************                                               0.019
  113.59951 |                                                              0.000
  129.82801 |****************************************************          0.065
  146.05651 |**********************                                        0.028
  162.28501 |*******                                                       0.009
  178.51351 |*************************************                         0.047
  194.74201 |                                                              0.000
  210.97051 |                                                              0.000
  227.19901 |**********************                                        0.028
  243.42751 |                                                              0.000
  259.65601 |**********************                                        0.028
  275.88451 |***************                                               0.019
  292.11302 |*********************************************                 0.056
  308.34152 |******************************                                0.037
  324.57002 |*******                                                       0.009
  340.79852 |*******                                                       0.009
  357.02702 |***************                                               0.019
  373.25552 |                                                              0.000
  389.48402 |****************************************************          0.065
  405.71252 |***************                                               0.019
  421.94102 |                                                              0.000
  438.16952 |******************************                                0.037
  454.39802 |*************************************                         0.047
  470.62653 |                                                              0.000
  486.85503 |                                                              0.000
  503.08353 |                                                              0.000
  519.31203 |***************                                               0.019
  535.54053 |                                                              0.000
  551.76903 |***************                                               0.019
  567.99753 |                                                              0.000
  584.22603 |                                                              0.000
  600.45453 |*******                                                       0.009
  616.68303 |                                                              0.000
  632.91153 |**********************                                        0.028
  649.14004 |                                                              0.000
  665.36854 |                                                              0.000
  681.59704 |***************                                               0.019
  697.82554 |                                                              0.000
  714.05404 |                                                              0.000
  730.28254 |                                                              0.000
  746.51104 |                                                              0.000
  762.73954 |                                                              0.000
  778.96804 |*************************************                         0.047
  795.19654 |****************************************************          0.065
  811.42504 |****************************************************          0.065
  827.65354 |*********************************************                 0.056
  843.88205 |*******                                                       0.009
  860.11055 |                                                              0.000
  876.33905 |                                                              0.000
  892.56755 |                                                              0.000
  908.79605 |                                                              0.000
  925.02455 |                                                              0.000
  941.25305 |                                                              0.000
  957.48155 |*******                                                       0.009
  973.71005 |                                                              0.000
  989.93855 |                                                              0.000
 1006.16705 |***************                                               0.019
 1022.39556 |************************************************************  0.075
--------------------------------------------------------------------------------



  Time to end of properties =       0.1031 seconds


********************************************************************************
*  Output for configuration   2 : quartz                                       *
********************************************************************************


  Components of energy : 

--------------------------------------------------------------------------------
  Interatomic potentials     =         103.20999263 eV
  Three-body potentials      =           0.05739430 eV
  Monopole - monopole (real) =        -110.50584961 eV
  Monopole - monopole (recip)=        -379.15713036 eV
  Monopole - monopole (total)=        -489.66297997 eV
--------------------------------------------------------------------------------
  Total lattice energy       =        -386.39559303 eV
--------------------------------------------------------------------------------
  Total lattice energy       =          -37281.2681 kJ/(mole unit cells)
--------------------------------------------------------------------------------

  Born effective charge tensors : 

-------------------------------------------------------------------------------
  Atom             x           y             z
-------------------------------------------------------------------------------
   1 Si    x       3.1813      0.0000      0.0000
           y       0.0000      3.6274      0.3111
           z       0.0000     -0.1817      3.5010
-------------------------------------------------------------------------------
   2 O     x      -1.4096      0.4108     -0.2914
           y       0.3968     -1.9947      0.5879
           z      -0.2111      0.6417     -1.7505
-------------------------------------------------------------------------------




  Elastic Constant Matrix: (Units=GPa)

-------------------------------------------------------------------------------
  Indices      1         2         3         4         5         6    
-------------------------------------------------------------------------------
       1    103.8058   11.4010   14.3610  -16.0366    0.0000   -0.0000
       2     11.4010  103.8058   14.3610   16.0366   -0.0000   -0.0000
       3     14.3610   14.3610  107.3076    0.0000   -0.0000   -0.0000
       4    -16.0366   16.0366    0.0000   51.7748    0.0000   -0.0000
       5      0.0000   -0.0000   -0.0000    0.0000   51.7748  -16.0366
       6     -0.0000   -0.0000   -0.0000   -0.0000  -16.0366   46.2024
-------------------------------------------------------------------------------


  Elastic Compliance Matrix: (Units=1/GPa)

-------------------------------------------------------------------------------
  Indices      1         2         3         4         5         6    
-------------------------------------------------------------------------------
       1    0.010553 -0.001573 -0.001202  0.003756 -0.000000 -0.000000
       2   -0.001573  0.010553 -0.001202 -0.003756  0.000000  0.000000
       3   -0.001202 -0.001202  0.009641 -0.000000  0.000000  0.000000
       4    0.003756 -0.003756 -0.000000  0.021641 -0.000000  0.000000
       5   -0.000000  0.000000  0.000000 -0.000000  0.021641  0.007511
       6   -0.000000  0.000000  0.000000  0.000000  0.007511  0.024251
-------------------------------------------------------------------------------

  Mechanical properties :

-------------------------------------------------------------------------------
  Convention :                    Reuss         Voigt         Hill
-------------------------------------------------------------------------------
  Bulk  Modulus (GPa)     =      43.87314      43.90721      43.89018
  Shear Modulus (GPa)     =      43.92534      48.27016      46.09775
-------------------------------------------------------------------------------
  Velocity S-wave (km/s)  =       4.07374       4.27047       4.17327
  Velocity P-wave (km/s)  =       6.22116       6.39566       6.30901
-------------------------------------------------------------------------------
  Compressibility (1/GPa) =    0.02279299
-------------------------------------------------------------------------------
  Stress axis :                     x             y             z
-------------------------------------------------------------------------------
  Youngs Moduli (GPa)     =      94.76337      94.76337     103.72725
-------------------------------------------------------------------------------
  Poissons Ratio (x)      =                     0.14906       0.12465
  Poissons Ratio (y)      =       0.14906                     0.12465
  Poissons Ratio (z)      =       0.11388       0.11388
-------------------------------------------------------------------------------


  Piezoelectric Strain Matrix: (Units=C/m**2)

-------------------------------------------------------------------------------
  Indices      1         2         3         4         5         6    
-------------------------------------------------------------------------------
       x     2.48925  -2.48925  -0.00000  -0.66454   0.00000   0.00000
       y     0.00000  -0.00000  -0.00000   0.00000   0.66454  -2.48925
       z    -0.00000  -0.00000   0.00000   0.00000   0.00000  -0.00000
-------------------------------------------------------------------------------


  Piezoelectric Stress Matrix: (Units=10**-11 C/N)

-------------------------------------------------------------------------------
  Indices      1         2         3         4         5         6    
-------------------------------------------------------------------------------
       x     2.76877  -2.76877  -0.00000   0.43167   0.00000   0.00000
       y     0.00000  -0.00000  -0.00000   0.00000  -0.43167  -5.53753
       z    -0.00000  -0.00000   0.00000   0.00000   0.00000  -0.00000
-------------------------------------------------------------------------------


  Static dielectric constant tensor : 

-------------------------------------------------------------------------------
              x         y         z
-------------------------------------------------------------------------------
       x     4.77783  -0.00000  -0.00000
       y    -0.00000   4.77783   0.00000
       z    -0.00000   0.00000   5.18980
--------------------------------------------------------------------------------

  High frequency dielectric constant tensor : 

-------------------------------------------------------------------------------
              x         y         z
-------------------------------------------------------------------------------
       x     2.07868  -0.00000  -0.00000
       y    -0.00000   2.07868   0.00000
       z    -0.00000   0.00000   2.10022
-------------------------------------------------------------------------------

  Static refractive indices : 

-------------------------------------------------------------------------------
    1 =    2.18582      2 =    2.18582      3 =    2.27811
-------------------------------------------------------------------------------

  High frequency refractive indices : 

-------------------------------------------------------------------------------
    1 =    1.44176      2 =    1.44176      3 =    1.44921
-------------------------------------------------------------------------------


  Phonon Calculation : 

  Number of k points for this configuration =        1

--------------------------------------------------------------------------------
  K point      2 =   0.000000  0.000000  0.000000  Weight =    1.000
--------------------------------------------------------------------------------

  Frequencies (cm-1) [NB: Negative implies an imaginary mode]:

   -0.00    0.00    0.00  133.02  133.02  193.17  259.99  259.99  329.52
  344.15  386.98  386.98  421.72  421.72  446.08  474.42  706.45  706.45
  806.79  806.79  809.48  882.26  885.40  885.40  895.73 1022.73 1022.73


--------------------------------------------------------------------------------
  Phonon properties (per mole of unit cells): Temperature =      0.000 K
--------------------------------------------------------------------------------
  Zero point energy            =        0.844397 eV
--------------------------------------------------------------------------------

  Phonon density of states : 

--------------------------------------------------------------------------------
 Frequency (cm-1) Density of States                                             
--------------------------------------------------------------------------------
    0.00000 |****************************************                      0.077
   15.98013 |                                                              0.000
   31.96027 |                                                              0.000
   47.94040 |                                                              0.000
   63.92053 |                                                              0.000
   79.90067 |                                                              0.000
   95.88080 |                                                              0.000
  111.86093 |                                                              0.000
  127.84107 |****************************************                      0.077
  143.82120 |                                                              0.000
  159.80134 |                                                              0.000
  175.78147 |                                                              0.000
  191.76160 |********************                                          0.038
  207.74174 |                                                              0.000
  223.72187 |                                                              0.000
  239.70200 |                                                              0.000
  255.68214 |****************************************                      0.077
  271.66227 |                                                              0.000
  287.64240 |                                                              0.000
  303.62254 |                                                              0.000
  319.60267 |********************                                          0.038
  335.58280 |********************                                          0.038
  351.56294 |                                                              0.000
  367.54307 |                                                              0.000
  383.52321 |****************************************                      0.077
  399.50334 |                                                              0.000
  415.48347 |****************************************                      0.077
  431.46361 |********************                                          0.038
  447.44374 |                                                              0.000
  463.42387 |********************                                          0.038
  479.40401 |                                                              0.000
  495.38414 |                                                              0.000
  511.36427 |                                                              0.000
  527.34441 |                                                              0.000
  543.32454 |                                                              0.000
  559.30467 |                                                              0.000
  575.28481 |                                                              0.000
  591.26494 |                                                              0.000
  607.24507 |                                                              0.000
  623.22521 |                                                              0.000
  639.20534 |                                                              0.000
  655.18548 |                                                              0.000
  671.16561 |                                                              0.000
  687.14574 |                                                              0.000
  703.12588 |****************************************                      0.077
  719.10601 |                                                              0.000
  735.08614 |                                                              0.000
  751.06628 |                                                              0.000
  767.04641 |                                                              0.000
  783.02654 |                                                              0.000
  799.00668 |************************************************************  0.115
  814.98681 |                                                              0.000
  830.96694 |                                                              0.000
  846.94708 |                                                              0.000
  862.92721 |                                                              0.000
  878.90735 |************************************************************  0.115
  894.88748 |********************                                          0.038
  910.86761 |                                                              0.000
  926.84775 |                                                              0.000
  942.82788 |                                                              0.000
  958.80801 |                                                              0.000
  974.78815 |                                                              0.000
  990.76828 |                                                              0.000
 1006.74841 |****************************************                      0.077
--------------------------------------------------------------------------------



  Time to end of properties =       0.1113 seconds


  Peak dynamic memory used =       1.27 MB 


  Timing analysis for GULP :

--------------------------------------------------------------------------------
  Task / Subroutine                                          Time (Seconds)
--------------------------------------------------------------------------------
  Calculation of reciprocal space energy and derivatives          0.0337
  Calculation of real space energy and derivatives                0.0553
  Calculation of three-body energy and derivatives                0.0018
  Calculation of phonons                                          0.0511
  Calculation of scattering                                       0.0000
  Calculation of matrix inversion                                 0.0003
  Symmetry generation of equivalent positions                     0.0016
--------------------------------------------------------------------------------
  Total CPU time                                                  0.1115
--------------------------------------------------------------------------------


  Job Finished at 22:05.32 26th February   2015                               

