********************************************************************************
*                       GENERAL UTILITY LATTICE PROGRAM                        *
*                                 Julian Gale                                  *
*                      Nanochemistry Research Institute                        *
*                           Department of Chemistry                            *
*                    Curtin University, Western Australia                      *
********************************************************************************
* Version = 4.3.0 * Last modified =  14th June 2014                            *
********************************************************************************
*  optimise     - perform optimisation run                                     *
*  conp         - constant pressure calculation                                *
*  molecule     - molecule option activated, Coulomb subtract within molecule  *
********************************************************************************

  Job Started  at 11:12.17 24th February   2015                               

  Number of CPUs =     1


  Total number of configurations input =   1

********************************************************************************
*  Input for Configuration =   1 : calcite_104_0.0000                          *
********************************************************************************

  Formula = C24O72Ca24                                                  

  Number of irreducible atoms/shells =     192


  Total number atoms/shells =     192

  Dimensionality = 2               :  Surface



  Surface Cartesian vectors (Angstroms) :

        4.980183   -0.000000    0.000000
        4.980183   24.270662    0.000000

  Surface cell parameters (Angstroms/Degrees):

  a =       4.9802    alpha =  78.4042
  b =      24.7763

  Initial surface area   =    120.872338 Angs**2

  Initial surface dipole =      0.000001 e.Angs

  Temperature of configuration =  0.000     K 

  Mixed fractional/Cartesian coordinates of surface :

--------------------------------------------------------------------------------
   No.  Atomic       x           y          z         Charge      Occupancy
        Label      (Frac)      (Frac)     (Angs)        (e)         (Frac)  
--------------------------------------------------------------------------------
      1 C     c    0.421919 *  0.078081 *  -12.1347 *   1.34354    1.000000    
      2 O     c    0.327506 *  0.046167 *  -12.9011 *   1.01849    1.000000    
      3 O     c    0.263679 *  0.109994 *  -11.3682 *   1.01849    1.000000    
      4 O     c    0.674573 *  0.078081 *  -12.1347 *   1.01849    1.000000    
      5 O     c    0.709619 *  0.037727 *   -9.1010 *   1.01849    1.000000    
      6 C     c    0.962273 *  0.037727 *   -9.1010 *   1.34354    1.000000    
      7 O     c    0.120513 *  0.005814 *   -9.8675 *   1.01849    1.000000    
      8 O     c    0.056686 *  0.069641 *   -8.3345 *   1.01849    1.000000    
      9 Ca    c    0.838586 *  0.161414 *  -12.1347 *   2.00000    1.000000    
     10 Ca    c    0.919293 *  0.080707 *   -6.0673 *   2.00000    1.000000    
     11 Ca    c    0.671919 *  0.328081 *  -12.1347 *   2.00000    1.000000    
     12 C     c    0.795606 *  0.204394 *   -9.1010 *   1.34354    1.000000    
     13 O     c    0.701192 *  0.172480 *   -9.8675 *   1.01849    1.000000    
     14 O     c    0.637366 *  0.236307 *   -8.3345 *   1.01849    1.000000    
     15 O     c    0.048260 *  0.204394 *   -9.1010 *   1.01849    1.000000    
     16 C     c    0.255253 *  0.244747 *  -12.1347 *   1.34354    1.000000    
     17 O     c    0.349666 *  0.276661 *  -11.3682 *   1.01849    1.000000    
     18 O     c    0.002599 *  0.244747 *  -12.1347 *   1.01849    1.000000    
     19 O     c    0.413493 *  0.212834 *  -12.9011 *   1.01849    1.000000    
     20 Ca    c    0.459646 *  0.040353 *   -3.0337 *   2.00000    1.000000    
     21 O     c    0.083306 *  0.164040 *   -6.0673 *   1.01849    1.000000    
     22 C     c    0.335960 *  0.164040 *   -6.0673 *   1.34354    1.000000    
     23 O     c    0.494200 *  0.132127 *   -6.8338 *   1.01849    1.000000    
     24 O     c    0.430373 *  0.195954 *   -5.3009 *   1.01849    1.000000    
     25 O     c    0.994172 *  0.379500 *  -12.9011 *   1.01849    1.000000    
     26 C     c    0.088586 *  0.411414 *  -12.1347 *   1.34354    1.000000    
     27 O     c    0.930345 *  0.443328 *  -11.3682 *   1.01849    1.000000    
     28 O     c    0.341240 *  0.411414 *  -12.1347 *   1.01849    1.000000    
     29 Ca    c    0.212273 *  0.287727 *   -9.1010 *   2.00000    1.000000    
     30 Ca    c    0.378939 *  0.121060 *   -9.1010 *   2.00000    1.000000    
     31 C     c    0.921919 *  0.578081 *  -12.1347 *   1.34354    1.000000    
     32 O     c    0.016333 *  0.609994 *  -11.3682 *   1.01849    1.000000    
     33 O     c    0.080160 *  0.546167 *  -12.9011 *   1.01849    1.000000    
     34 O     c    0.669265 *  0.578081 *  -12.1347 *   1.01849    1.000000    
     35 Ca    c    0.338586 *  0.661414 *  -12.1347 *   2.00000    1.000000    
     36 Ca    c    0.505253 *  0.494747 *  -12.1347 *   2.00000    1.000000    
     37 C     c    0.628939 *  0.371061 *   -9.1010 *   1.34354    1.000000    
     38 O     c    0.723353 *  0.402974 *   -8.3345 *   1.01849    1.000000    
     39 O     c    0.376285 *  0.371061 *   -9.1010 *   1.01849    1.000000    
     40 O     c    0.787180 *  0.339147 *   -9.8675 *   1.01849    1.000000    
     41 Ca    c    0.292980 *  0.207020 *   -3.0337 *   2.00000    1.000000    
     42 Ca    c    0.045606 *  0.454394 *   -9.1010 *   2.00000    1.000000    
     43 C     c    0.876313 *  0.123687 *   -3.0337 *   1.34354    1.000000    
     44 O     c    0.781900 *  0.091773 *   -3.8001 *   1.01849    1.000000    
     45 O     c    0.128967 *  0.123687 *   -3.0337 *   1.01849    1.000000    
     46 O     c    0.718073 *  0.155600 *   -2.2672 *   1.01849    1.000000    
     47 C     c    0.169293 *  0.330707 *   -6.0673 *   1.34354    1.000000    
     48 O     c    0.074879 *  0.298793 *   -6.8338 *   1.01849    1.000000    
     49 O     c    0.011052 *  0.362621 *   -5.3009 *   1.01849    1.000000    
     50 O     c    0.421947 *  0.330707 *   -6.0673 *   1.01849    1.000000    
     51 O     c    0.456992 *  0.290353 *   -3.0337 *   1.01849    1.000000    
     52 C     c    0.709646 *  0.290353 *   -3.0337 *   1.34354    1.000000    
     53 O     c    0.867887 *  0.258440 *   -3.8001 *   1.01849    1.000000    
     54 O     c    0.804060 *  0.322267 *   -2.2672 *   1.01849    1.000000    
     55 O     c    0.367859 *  0.505814 *   -9.8675 *   1.01849    1.000000    
     56 C     c    0.462273 *  0.537727 *   -9.1010 *   1.34354    1.000000    
     57 O     c    0.304032 *  0.569641 *   -8.3345 *   1.01849    1.000000    
     58 O     c    0.714927 *  0.537727 *   -9.1010 *   1.01849    1.000000    
     59 Ca    c    0.585960 *  0.414040 *   -6.0673 *   2.00000    1.000000    
     60 Ca    c    0.752626 *  0.247374 *   -6.0673 *   2.00000    1.000000    
     61 Ca    c    0.171919 *  0.828081 *  -12.1347 *   2.00000    1.000000    
     62 Ca    c    0.712273 *  0.787727 *   -9.1010 *   2.00000    1.000000    
     63 C     c    0.755253 *  0.744747 *  -12.1347 *   1.34354    1.000000    
     64 O     c    0.660839 *  0.712834 *  -12.9011 *   1.01849    1.000000    
     65 O     c    0.007906 *  0.744747 *  -12.1347 *   1.01849    1.000000    
     66 O     c    0.597012 *  0.776661 *  -11.3682 *   1.01849    1.000000    
     67 C     c    0.295606 *  0.704394 *   -9.1010 *   1.34354    1.000000    
     68 O     c    0.390020 *  0.736307 *   -8.3345 *   1.01849    1.000000    
     69 O     c    0.453847 *  0.672480 *   -9.8675 *   1.01849    1.000000    
     70 O     c    0.042952 *  0.704394 *   -9.1010 *   1.01849    1.000000    
     71 O     c    0.335932 *  0.911414 *  -12.1347 *   1.01849    1.000000    
     72 C     c    0.588586 *  0.911414 *  -12.1347 *   1.34354    1.000000    
     73 O     c    0.746826 *  0.879500 *  -12.9011 *   1.01849    1.000000    
     74 O     c    0.682999 *  0.943328 *  -11.3682 *   1.01849    1.000000    
     75 Ca    c    0.878939 *  0.621060 *   -9.1010 *   2.00000    1.000000    
     76 Ca    c    0.419293 *  0.580707 *   -6.0673 *   2.00000    1.000000    
     77 C     c    0.542980 *  0.457020 *   -3.0337 *   1.34354    1.000000    
     78 O     c    0.448566 *  0.425107 *   -3.8001 *   1.01849    1.000000    
     79 O     c    0.384739 *  0.488934 *   -2.2672 *   1.01849    1.000000    
     80 O     c    0.795634 *  0.457020 *   -3.0337 *   1.01849    1.000000    
     81 O     c    0.741546 *  0.632127 *   -6.8338 *   1.01849    1.000000    
     82 C     c    0.835960 *  0.664040 *   -6.0673 *   1.34354    1.000000    
     83 O     c    0.677719 *  0.695954 *   -5.3009 *   1.01849    1.000000    
     84 O     c    0.088614 *  0.664040 *   -6.0673 *   1.01849    1.000000    
     85 Ca    c    0.959646 *  0.540353 *   -3.0337 *   2.00000    1.000000    
     86 C     c    0.002626 *  0.497374 *   -6.0673 *   1.34354    1.000000    
     87 O     c    0.097040 *  0.529287 *   -5.3009 *   1.01849    1.000000    
     88 O     c    0.749972 *  0.497374 *   -6.0673 *   1.01849    1.000000    
     89 O     c    0.160867 *  0.465460 *   -6.8338 *   1.01849    1.000000    
     90 Ca    c    0.126313 *  0.373687 *   -3.0337 *   2.00000    1.000000    
     91 Ca    c    0.545606 *  0.954394 *   -9.1010 *   2.00000    1.000000    
     92 C     c    0.669293 *  0.830707 *   -6.0673 *   1.34354    1.000000    
     93 O     c    0.763706 *  0.862621 *   -5.3009 *   1.01849    1.000000    
     94 O     c    0.827533 *  0.798793 *   -6.8338 *   1.01849    1.000000    
     95 O     c    0.416639 *  0.830707 *   -6.0673 *   1.01849    1.000000    
     96 Ca    c    0.792980 *  0.707020 *   -3.0337 *   2.00000    1.000000    
     97 Ca    c    0.085960 *  0.914040 *   -6.0673 *   2.00000    1.000000    
     98 C     c    0.128939 *  0.871060 *   -9.1010 *   1.34354    1.000000    
     99 O     c    0.034526 *  0.839147 *   -9.8675 *   1.01849    1.000000    
    100 O     c    0.381593 *  0.871060 *   -9.1010 *   1.01849    1.000000    
    101 O     c    0.970699    0.902974     -8.3345     1.01849    1.000000    
    102 Ca    c    0.005253 *  0.994747 *  -12.1347 *   2.00000    1.000000    
    103 Ca    c    0.252626 *  0.747374 *   -6.0673 *   2.00000    1.000000    
    104 C     c    0.376313 *  0.623687 *   -3.0337 *   1.34354    1.000000    
    105 O     c    0.470727 *  0.655600 *   -2.2672 *   1.01849    1.000000    
    106 O     c    0.123659 *  0.623687 *   -3.0337 *   1.01849    1.000000    
    107 O     c    0.534554 *  0.591773 *   -3.8001 *   1.01849    1.000000    
    108 O     c    0.115233 *  0.758440 *   -3.8001 *   1.01849    1.000000    
    109 C     c    0.209646 *  0.790353 *   -3.0337 *   1.34354    1.000000    
    110 O     c    0.051406 *  0.822267 *   -2.2672 *   1.01849    1.000000    
    111 O     c    0.462300 *  0.790353 *   -3.0337 *   1.01849    1.000000    
    112 C     c    0.502626 *  0.997374 *   -6.0673 *   1.34354    1.000000    
    113 O     c    0.408213 *  0.965460 *   -6.8338 *   1.01849    1.000000    
    114 O     c    0.755280 *  0.997374 *   -6.0673 *   1.01849    1.000000    
    115 O     c    0.344386 *  0.029287 *   -5.3009 *   1.01849    1.000000    
    116 C     c    0.042980 *  0.957020 *   -3.0337 *   1.34354    1.000000    
    117 O     c    0.137393 *  0.988934 *   -2.2672 *   1.01849    1.000000    
    118 O     c    0.201220 *  0.925107 *   -3.8001 *   1.01849    1.000000    
    119 O     c    0.790326 *  0.957020 *   -3.0337 *   1.01849    1.000000    
    120 Ca    c    0.626313 *  0.873687 *   -3.0337 *   2.00000    1.000000    
    121 O     s    0.327287 *  0.046093 *  -12.9029 *  -2.13300    1.000000    
    122 O     s    0.263313 *  0.110068 *  -11.3664 *  -2.13300    1.000000    
    123 O     s    0.675156 *  0.078081 *  -12.1347 *  -2.13300    1.000000    
    124 O     s    0.709035 *  0.037727 *   -9.1010 *  -2.13300    1.000000    
    125 O     s    0.120879 *  0.005740 *   -9.8692 *  -2.13300    1.000000    
    126 O     s    0.056904 *  0.069714 *   -8.3328 *  -2.13300    1.000000    
    127 O     s    0.700974 *  0.172407 *   -9.8692 *  -2.13300    1.000000    
    128 O     s    0.637000 *  0.236381 *   -8.3328 *  -2.13300    1.000000    
    129 O     s    0.048843 *  0.204394 *   -9.1010 *  -2.13300    1.000000    
    130 O     s    0.349884 *  0.276735 *  -11.3664 *  -2.13300    1.000000    
    131 O     s    0.002015 *  0.244747 *  -12.1347 *  -2.13300    1.000000    
    132 O     s    0.413858 *  0.212760 *  -12.9029 *  -2.13300    1.000000    
    133 O     s    0.082722 *  0.164040 *   -6.0673 *  -2.13300    1.000000    
    134 O     s    0.494566 *  0.132053 *   -6.8356 *  -2.13300    1.000000    
    135 O     s    0.430591 *  0.196028 *   -5.2991 *  -2.13300    1.000000    
    136 O     s    0.993954 *  0.379427 *  -12.9029 *  -2.13300    1.000000    
    137 O     s    0.929980 *  0.443401 *  -11.3664 *  -2.13300    1.000000    
    138 O     s    0.341823 *  0.411414 *  -12.1347 *  -2.13300    1.000000    
    139 O     s    0.016551 *  0.610068 *  -11.3664 *  -2.13300    1.000000    
    140 O     s    0.080525 *  0.546093 *  -12.9029 *  -2.13300    1.000000    
    141 O     s    0.668682 *  0.578081 *  -12.1347 *  -2.13300    1.000000    
    142 O     s    0.723571 *  0.403048 *   -8.3328 *  -2.13300    1.000000    
    143 O     s    0.375702 *  0.371061 *   -9.1010 *  -2.13300    1.000000    
    144 O     s    0.787545 *  0.339073 *   -9.8692 *  -2.13300    1.000000    
    145 O     s    0.781682 *  0.091700 *   -3.8019 *  -2.13300    1.000000    
    146 O     s    0.129551 *  0.123687 *   -3.0337 *  -2.13300    1.000000    
    147 O     s    0.717707 *  0.155674 *   -2.2654 *  -2.13300    1.000000    
    148 O     s    0.074661 *  0.298720 *   -6.8356 *  -2.13300    1.000000    
    149 O     s    0.010687 *  0.362694 *   -5.2991 *  -2.13300    1.000000    
    150 O     s    0.422530 *  0.330707 *   -6.0673 *  -2.13300    1.000000    
    151 O     s    0.456409 *  0.290353 *   -3.0337 *  -2.13300    1.000000    
    152 O     s    0.868252 *  0.258366 *   -3.8019 *  -2.13300    1.000000    
    153 O     s    0.804278 *  0.322341 *   -2.2654 *  -2.13300    1.000000    
    154 O     s    0.367641 *  0.505740 *   -9.8692 *  -2.13300    1.000000    
    155 O     s    0.303667 *  0.569714 *   -8.3328 *  -2.13300    1.000000    
    156 O     s    0.715510 *  0.537727 *   -9.1010 *  -2.13300    1.000000    
    157 O     s    0.660621 *  0.712760 *  -12.9029 *  -2.13300    1.000000    
    158 O     s    0.008490 *  0.744747 *  -12.1347 *  -2.13300    1.000000    
    159 O     s    0.596647 *  0.776735 *  -11.3664 *  -2.13300    1.000000    
    160 O     s    0.390238 *  0.736381 *   -8.3328 *  -2.13300    1.000000    
    161 O     s    0.454212 *  0.672407 *   -9.8692 *  -2.13300    1.000000    
    162 O     s    0.042369 *  0.704394 *   -9.1010 *  -2.13300    1.000000    
    163 O     s    0.335348 *  0.911414 *  -12.1347 *  -2.13300    1.000000    
    164 O     s    0.747192 *  0.879427 *  -12.9029 *  -2.13300    1.000000    
    165 O     s    0.683218 *  0.943401 *  -11.3664 *  -2.13300    1.000000    
    166 O     s    0.448348 *  0.425033 *   -3.8019 *  -2.13300    1.000000    
    167 O     s    0.384374 *  0.489007 *   -2.2654 *  -2.13300    1.000000    
    168 O     s    0.796217 *  0.457020 *   -3.0337 *  -2.13300    1.000000    
    169 O     s    0.741328 *  0.632053 *   -6.8356 *  -2.13300    1.000000    
    170 O     s    0.677354 *  0.696028 *   -5.2991 *  -2.13300    1.000000    
    171 O     s    0.089197 *  0.664040 *   -6.0673 *  -2.13300    1.000000    
    172 O     s    0.097258 *  0.529361 *   -5.2991 *  -2.13300    1.000000    
    173 O     s    0.749389 *  0.497374 *   -6.0673 *  -2.13300    1.000000    
    174 O     s    0.161232 *  0.465386 *   -6.8356 *  -2.13300    1.000000    
    175 O     s    0.763924 *  0.862694 *   -5.2991 *  -2.13300    1.000000    
    176 O     s    0.827899 *  0.798720 *   -6.8356 *  -2.13300    1.000000    
    177 O     s    0.416055 *  0.830707 *   -6.0673 *  -2.13300    1.000000    
    178 O     s    0.034308 *  0.839073 *   -9.8692 *  -2.13300    1.000000    
    179 O     s    0.382177 *  0.871060 *   -9.1010 *  -2.13300    1.000000    
    180 O     s    0.970334 *  0.903048 *   -8.3328 *  -2.13300    1.000000    
    181 O     s    0.470945 *  0.655674 *   -2.2654 *  -2.13300    1.000000    
    182 O     s    0.123076 *  0.623687 *   -3.0337 *  -2.13300    1.000000    
    183 O     s    0.534919 *  0.591700 *   -3.8019 *  -2.13300    1.000000    
    184 O     s    0.115015 *  0.758366 *   -3.8019 *  -2.13300    1.000000    
    185 O     s    0.051040 *  0.822341 *   -2.2654 *  -2.13300    1.000000    
    186 O     s    0.462884 *  0.790353 *   -3.0337 *  -2.13300    1.000000    
    187 O     s    0.407995 *  0.965387 *   -6.8356 *  -2.13300    1.000000    
    188 O     s    0.755864 *  0.997374 *   -6.0673 *  -2.13300    1.000000    
    189 O     s    0.344020 *  0.029361 *   -5.2991 *  -2.13300    1.000000    
    190 O     s    0.137611 *  0.989007 *   -2.2654 *  -2.13300    1.000000    
    191 O     s    0.201586 *  0.925033 *   -3.8019 *  -2.13300    1.000000    
    192 O     s    0.789742 *  0.957020 *   -3.0337 *  -2.13300    1.000000    
--------------------------------------------------------------------------------



  Growth Slice : 

  Number of formula units in slice =    6

  Mixed fractional/Cartesian coordinates

--------------------------------------------------------------------------------
   No.  Atomic       x           y          z         Charge      Occupancy
        Label      (Frac)      (Frac)     (Angs)        (e)         (Frac)  
--------------------------------------------------------------------------------
     20 Ca    c    0.459646    0.040353     -3.0337      2.0000    1.000000
     41 Ca    c    0.292980    0.207020     -3.0337      2.0000    1.000000
     43 C     c    0.876313    0.123687     -3.0337      1.3435    1.000000
     44 O     c    0.781900    0.091773     -3.8001      1.0185    1.000000
     45 O     c    0.128967    0.123687     -3.0337      1.0185    1.000000
     46 O     c    0.718073    0.155600     -2.2672      1.0185    1.000000
     51 O     c    0.456992    0.290353     -3.0337      1.0185    1.000000
     52 C     c    0.709646    0.290353     -3.0337      1.3435    1.000000
     53 O     c    0.867887    0.258440     -3.8001      1.0185    1.000000
     54 O     c    0.804060    0.322267     -2.2672      1.0185    1.000000
     77 C     c    0.542980    0.457020     -3.0337      1.3435    1.000000
     78 O     c    0.448566    0.425107     -3.8001      1.0185    1.000000
     79 O     c    0.384739    0.488934     -2.2672      1.0185    1.000000
     80 O     c    0.795634    0.457020     -3.0337      1.0185    1.000000
     85 Ca    c    0.959646    0.540353     -3.0337      2.0000    1.000000
     90 Ca    c    0.126313    0.373687     -3.0337      2.0000    1.000000
     96 Ca    c    0.792980    0.707020     -3.0337      2.0000    1.000000
    104 C     c    0.376313    0.623687     -3.0337      1.3435    1.000000
    105 O     c    0.470727    0.655600     -2.2672      1.0185    1.000000
    106 O     c    0.123659    0.623687     -3.0337      1.0185    1.000000
    107 O     c    0.534554    0.591773     -3.8001      1.0185    1.000000
    108 O     c    0.115233    0.758440     -3.8001      1.0185    1.000000
    109 C     c    0.209646    0.790353     -3.0337      1.3435    1.000000
    110 O     c    0.051406    0.822267     -2.2672      1.0185    1.000000
    111 O     c    0.462300    0.790353     -3.0337      1.0185    1.000000
    116 C     c    0.042980    0.957020     -3.0337      1.3435    1.000000
    117 O     c    0.137393    0.988934     -2.2672      1.0185    1.000000
    118 O     c    0.201220    0.925107     -3.8001      1.0185    1.000000
    119 O     c    0.790326    0.957020     -3.0337      1.0185    1.000000
    120 Ca    c    0.626313    0.873687     -3.0337      2.0000    1.000000
    145 O     s    0.781682    0.091700     -3.8019     -2.1330    1.000000
    146 O     s    0.129551    0.123687     -3.0337     -2.1330    1.000000
    147 O     s    0.717707    0.155674     -2.2654     -2.1330    1.000000
    151 O     s    0.456409    0.290353     -3.0337     -2.1330    1.000000
    152 O     s    0.868252    0.258366     -3.8019     -2.1330    1.000000
    153 O     s    0.804278    0.322341     -2.2654     -2.1330    1.000000
    166 O     s    0.448348    0.425033     -3.8019     -2.1330    1.000000
    167 O     s    0.384374    0.489007     -2.2654     -2.1330    1.000000
    168 O     s    0.796217    0.457020     -3.0337     -2.1330    1.000000
    181 O     s    0.470945    0.655674     -2.2654     -2.1330    1.000000
    182 O     s    0.123076    0.623687     -3.0337     -2.1330    1.000000
    183 O     s    0.534919    0.591700     -3.8019     -2.1330    1.000000
    184 O     s    0.115015    0.758366     -3.8019     -2.1330    1.000000
    185 O     s    0.051040    0.822341     -2.2654     -2.1330    1.000000
    186 O     s    0.462884    0.790353     -3.0337     -2.1330    1.000000
    190 O     s    0.137611    0.989007     -2.2654     -2.1330    1.000000
    191 O     s    0.201586    0.925033     -3.8019     -2.1330    1.000000
    192 O     s    0.789742    0.957020     -3.0337     -2.1330    1.000000
--------------------------------------------------------------------------------



  Molecule list generated from bond lengths :

  Total number of molecules =    24

--------------------------------------------------------------------------------
Molecule No./:  Atoms
Periodicity  :  
--------------------------------------------------------------------------------
     1  0    : C    c     1 O    c     2 O    c     3 O    c     4 O    s   121
             : O    s   122 O    s   123
     2  0    : O    c     5 C    c     6 O    c     7 O    c     8 O    s   124
             : O    s   125 O    s   126
     3  0    : C    c    12 O    c    13 O    c    14 O    c    15 O    s   127
             : O    s   128 O    s   129
     4  0    : C    c    16 O    c    17 O    c    18 O    c    19 O    s   130
             : O    s   131 O    s   132
     5  0    : O    c    21 C    c    22 O    c    23 O    c    24 O    s   133
             : O    s   134 O    s   135
     6  0    : O    c    25 C    c    26 O    c    27 O    c    28 O    s   136
             : O    s   137 O    s   138
     7  0    : C    c    31 O    c    32 O    c    33 O    c    34 O    s   139
             : O    s   140 O    s   141
     8  0    : C    c    37 O    c    38 O    c    39 O    c    40 O    s   142
             : O    s   143 O    s   144
     9  0    : C    c    43 O    c    44 O    c    45 O    c    46 O    s   145
             : O    s   146 O    s   147
    10  0    : C    c    47 O    c    48 O    c    49 O    c    50 O    s   148
             : O    s   149 O    s   150
    11  0    : O    c    51 C    c    52 O    c    53 O    c    54 O    s   151
             : O    s   152 O    s   153
    12  0    : O    c    55 C    c    56 O    c    57 O    c    58 O    s   154
             : O    s   155 O    s   156
    13  0    : C    c    63 O    c    64 O    c    65 O    c    66 O    s   157
             : O    s   158 O    s   159
    14  0    : C    c    67 O    c    68 O    c    69 O    c    70 O    s   160
             : O    s   161 O    s   162
    15  0    : O    c    71 C    c    72 O    c    73 O    c    74 O    s   163
             : O    s   164 O    s   165
    16  0    : C    c    77 O    c    78 O    c    79 O    c    80 O    s   166
             : O    s   167 O    s   168
    17  0    : O    c    81 C    c    82 O    c    83 O    c    84 O    s   169
             : O    s   170 O    s   171
    18  0    : C    c    86 O    c    87 O    c    88 O    c    89 O    s   172
             : O    s   173 O    s   174
    19  0    : C    c    92 O    c    93 O    c    94 O    c    95 O    s   175
             : O    s   176 O    s   177
    20  0    : C    c    98 O    c    99 O    c   100 O    c   101 O    s   178
             : O    s   179 O    s   180
    21  0    : C    c   104 O    c   105 O    c   106 O    c   107 O    s   181
             : O    s   182 O    s   183
    22  0    : O    c   108 C    c   109 O    c   110 O    c   111 O    s   184
             : O    s   185 O    s   186
    23  0    : C    c   112 O    c   113 O    c   114 O    c   115 O    s   187
             : O    s   188 O    s   189
    24  0    : C    c   116 O    c   117 O    c   118 O    c   119 O    s   190
             : O    s   191 O    s   192
--------------------------------------------------------------------------------


********************************************************************************
*  General input information                                                   *
********************************************************************************

  Species output for all configurations : 

--------------------------------------------------------------------------------
  Species    Type    Atomic    Atomic    Charge       Radii (Angs)     Library
                     Number     Mass       (e)     Cova   Ionic  VDW   Symbol
--------------------------------------------------------------------------------
    Cd       Core       48     112.41   2.000000   0.000  0.000  2.520          
    Mn       Core       25      54.94   2.000000   0.000  0.000  2.010          
    Mg       Core       12      24.31   2.000000   1.100  0.000  1.640          
    Zn       Core       30      65.39   2.000000   0.000  0.000  2.160          
    Ni       Core       28      58.69   2.000000   0.000  0.000  1.810          
    Co       Core       27      58.93   2.000000   0.000  0.000  1.990          
    Fe       Core       26      55.85   2.000000   0.000  0.000  2.000          
    Ca       Core       20      40.08   2.000000   0.990  0.000  2.750          
    C        Core        6      12.01   1.343539   0.770  0.000  1.530          
    O        Core        8      16.00   1.018487   0.730  0.000  1.360          
    O        Shell       8       0.00  -2.133000   0.730  0.000  1.360          
--------------------------------------------------------------------------------


  Lattice summation method               =    Ewald          (3-D)
                                         =    Parry          (2-D)
                                         =    Saunders et al (1-D)
  Accuracy factor for lattice sums       =   12.000


  Time limit = Infinity


!!!!!!!!!!!!!!!!!!!!!!!!!!!!!!!!!!!!!!!!!!!!!!!!!!!!!!!!!!!!!!!!!!!!!!!!!!!!!!!!
!! WARNING : potential   1 is acting on the core of an ion with a shell
!!!!!!!!!!!!!!!!!!!!!!!!!!!!!!!!!!!!!!!!!!!!!!!!!!!!!!!!!!!!!!!!!!!!!!!!!!!!!!!!



!!!!!!!!!!!!!!!!!!!!!!!!!!!!!!!!!!!!!!!!!!!!!!!!!!!!!!!!!!!!!!!!!!!!!!!!!!!!!!!!
!! WARNING : potential  11 is acting on the core of an ion with a shell
!!!!!!!!!!!!!!!!!!!!!!!!!!!!!!!!!!!!!!!!!!!!!!!!!!!!!!!!!!!!!!!!!!!!!!!!!!!!!!!!


  Maximum range for interatomic potentials =    100000.000000 Angstroms

  General interatomic potentials :

--------------------------------------------------------------------------------
Atom  Types   Potential         A         B         C         D     Cutoffs(Ang)
  1     2                                                            Min    Max 
--------------------------------------------------------------------------------
Ca   c O    s Buckingham    0.215E+04 0.289      0.00      0.00     0.000 10.000
Cd   c O    s Buckingham    0.433E+04 0.256      0.00      0.00     0.000 10.000
Mg   c O    s Buckingham    0.104E+04 0.289      0.00      0.00     0.000 10.000
Co   c O    s Buckingham    0.110E+04 0.286      0.00      0.00     0.000 10.000
Fe   c O    s Buckingham    0.215E+04 0.265      0.00      0.00     0.000 10.000
Mn   c O    s Buckingham    0.200E+04 0.273      0.00      0.00     0.000 10.000
Ni   c O    s Buckingham    0.163E+04 0.267      0.00      0.00     0.000 10.000
Zn   c O    s Buckingham    0.103E+04 0.289      0.00      0.00     0.000 10.000
O    c O    s Spring (c-s)   52.7     0.100E+05  0.00      0.00     0.000  0.800
--------------------------------------------------------------------------------

  Intramolecular potentials :

--------------------------------------------------------------------------------
Atom  Types   Potential         A         B         C         D     Cutoffs(Ang)
  1     2                                                            Min    Max 
--------------------------------------------------------------------------------
O    c O    c Buckingham    0.403E+04 0.245      0.00      0.00     0.000  2.500
C    c O    c Morse          5.00      2.52      1.20      0.00     0.000 1 Bond
--------------------------------------------------------------------------------

  Intermolecular potentials :

--------------------------------------------------------------------------------
Atom  Types   Potential         A         B         C         D     Cutoffs(Ang)
  1     2                                                            Min    Max 
--------------------------------------------------------------------------------
O    s O    s Buckingham    0.647E+05 0.199      21.8      0.00     0.000 15.000
--------------------------------------------------------------------------------

  Intramolecular Three-body potentials :

  Harmonic form:

--------------------------------------------------------------------------------
Atom    Atom    Atom           Force Constants            Theta     Cutoffs  
  1       2       3     (eVrad**-2/eVrad**-3/eVrad**-4)   (deg)  1-2  1-3  2-3
--------------------------------------------------------------------------------
C     c O     c O     c  1.777        0.0000    0.0000   120.000     Bonded
--------------------------------------------------------------------------------

  Intramolecular Four-body potentials :

  Out of plane potentials:

--------------------------------------------------------------------------------
         Atom Types              Force constants              Cutoffs
   1       2       3       4      (eV/Angs**k)          1-2      1-3      1-4   
--------------------------------------------------------------------------------
C     c O     c O     c O     c  8.828     0.000              Bonded
--------------------------------------------------------------------------------

********************************************************************************
*  Output for configuration   1 : calcite_104_0.0000                           *
********************************************************************************


  Components of energy : 

--------------------------------------------------------------------------------
  Interatomic potentials     =        -236.73250289 eV
  Three-body potentials      =           0.00000000 eV
  Four-body potentials       =           0.00000000 eV
  Improper torsions          =           0.00000000 eV
  Out of plane potentials    =           0.00000001 eV
  Monopole - monopole (real) =         -66.52628888 eV
  Monopole - monopole (recip)=        -709.10589918 eV
  Monopole - monopole (total)=        -775.63218806 eV
--------------------------------------------------------------------------------
  Total lattice energy       =       -1012.36469094 eV
--------------------------------------------------------------------------------
  Total lattice energy       =          -97677.7173 kJ/(mole unit cells)
--------------------------------------------------------------------------------
  Attachment energy          =         -10.69212959 eV
  Attachment energy/unit     =          -1.78202160 eV
--------------------------------------------------------------------------------


  Number of variables =      576

  Maximum number of calculations  =          1000
  Maximum Hessian update interval =            10
  Maximum step size               =   1.000000000
  Maximum parameter tolerance     =   0.000010000
  Maximum function  tolerance     =   0.000010000
  Maximum gradient  tolerance     =   0.001000000
  Maximum gradient  component     =   0.010000000

  Symmetry not applied to optimisation

  Cell parameters to be optimised using strains

  Newton-Raphson optimiser to be used

  BFGS hessian update to be used

  Minimiser to switch to RFO
  When gradient norm is less than     0.010000

  Start of surface optimisation :

  Cycle:      0 Energy:     -1012.364691  Gnorm:      0.145012  CPU:    0.464
  ** Hessian calculated **
  Cycle:      1 Energy:     -1013.724561  Gnorm:      0.094582  CPU:    1.209
  Cycle:      2 Energy:     -1014.010289  Gnorm:      0.052151  CPU:    1.854
  Cycle:      3 Energy:     -1014.174734  Gnorm:      0.070996  CPU:    2.475
  Cycle:      4 Energy:     -1014.282256  Gnorm:      0.077909  CPU:    3.043
  Cycle:      5 Energy:     -1014.364054  Gnorm:      0.046553  CPU:    3.680
  Cycle:      6 Energy:     -1014.428077  Gnorm:      0.057184  CPU:    4.452
  Cycle:      7 Energy:     -1014.506094  Gnorm:      0.063766  CPU:    5.187
  Cycle:      8 Energy:     -1014.558865  Gnorm:      0.052179  CPU:    5.717
  Cycle:      9 Energy:     -1014.601360  Gnorm:      0.049560  CPU:    6.404
  Cycle:     10 Energy:     -1014.650274  Gnorm:      0.047839  CPU:    6.952
  ** Hessian calculated **
  Cycle:     11 Energy:     -1014.678506  Gnorm:      0.043338  CPU:    7.905
  Cycle:     12 Energy:     -1014.703935  Gnorm:      0.031260  CPU:    8.435
  Cycle:     13 Energy:     -1014.723977  Gnorm:      0.034006  CPU:    9.092
  Cycle:     14 Energy:     -1014.747182  Gnorm:      0.037919  CPU:    9.732
  Cycle:     15 Energy:     -1014.764501  Gnorm:      0.025887  CPU:   10.258
  Cycle:     16 Energy:     -1014.781266  Gnorm:      0.026924  CPU:   10.926
  Cycle:     17 Energy:     -1014.796259  Gnorm:      0.022394  CPU:   11.443
  Cycle:     18 Energy:     -1014.813012  Gnorm:      0.023457  CPU:   12.096
  Cycle:     19 Energy:     -1014.832966  Gnorm:      0.023534  CPU:   12.734
  Cycle:     20 Energy:     -1014.862882  Gnorm:      0.036264  CPU:   13.377
  ** Hessian calculated **
  Cycle:     21 Energy:     -1014.875637  Gnorm:      0.020616  CPU:   14.289
  Cycle:     22 Energy:     -1014.882182  Gnorm:      0.017692  CPU:   14.956
  Cycle:     23 Energy:     -1014.887804  Gnorm:      0.015796  CPU:   15.597
  Cycle:     24 Energy:     -1014.893967  Gnorm:      0.017864  CPU:   16.222
  Cycle:     25 Energy:     -1014.899418  Gnorm:      0.016546  CPU:   16.872
  Cycle:     26 Energy:     -1014.903416  Gnorm:      0.014774  CPU:   17.565
  Cycle:     27 Energy:     -1014.907057  Gnorm:      0.017187  CPU:   18.142
  Cycle:     28 Energy:     -1014.911503  Gnorm:      0.015026  CPU:   18.901
  Cycle:     29 Energy:     -1014.917099  Gnorm:      0.017532  CPU:   19.565
  Cycle:     30 Energy:     -1014.924281  Gnorm:      0.021318  CPU:   20.223
  ** Hessian calculated **
  Cycle:     31 Energy:     -1014.929599  Gnorm:      0.016412  CPU:   21.161
  Cycle:     32 Energy:     -1014.933397  Gnorm:      0.012187  CPU:   21.803
  Cycle:     33 Energy:     -1014.936144  Gnorm:      0.011903  CPU:   22.329
  Cycle:     34 Energy:     -1014.938658  Gnorm:      0.012645  CPU:   22.977
  Cycle:     35 Energy:     -1014.941272  Gnorm:      0.011606  CPU:   23.641
  Cycle:     36 Energy:     -1014.944097  Gnorm:      0.011417  CPU:   24.270
  Cycle:     37 Energy:     -1014.946821  Gnorm:      0.008573  CPU:   24.908
  ** Hessian has required structure
  Cycle:     38 Energy:     -1014.947059  Gnorm:      0.008608  CPU:   26.273
  ** Hessian has required structure
  Cycle:     39 Energy:     -1014.948311  Gnorm:      0.009933  CPU:   27.652
  ** Hessian has required structure
  Cycle:     40 Energy:     -1014.948731  Gnorm:      0.009132  CPU:   29.010
  ** Hessian has wrong structure
  ** Imaginary eigenvectors =   1
  Cycle:     41 Energy:     -1015.061723  Gnorm:      0.056694  CPU:   31.778
  ** Hessian has wrong structure
  ** Imaginary eigenvectors =   1
  Cycle:     42 Energy:     -1015.396620  Gnorm:      0.088702  CPU:   34.741
  ** Hessian has required structure
  Cycle:     43 Energy:     -1015.912179  Gnorm:      0.031615  CPU:   36.794
  ** Hessian has required structure
  Cycle:     44 Energy:     -1016.107757  Gnorm:      0.060178  CPU:   38.465
  ** Hessian has required structure
  Cycle:     45 Energy:     -1016.173087  Gnorm:      0.035710  CPU:   40.060
  ** Hessian has required structure
  Cycle:     46 Energy:     -1016.217282  Gnorm:      0.018195  CPU:   41.636
  ** Hessian has required structure
  Cycle:     47 Energy:     -1016.259058  Gnorm:      0.015865  CPU:   43.215
  ** Hessian has required structure
  Cycle:     48 Energy:     -1016.278053  Gnorm:      0.025289  CPU:   44.725
  ** Hessian has required structure
  ** Hessian has required structure
  Cycle:     49 Energy:     -1016.305065  Gnorm:      0.003891  CPU:   47.556
  ** Hessian has required structure
  ** Hessian has required structure
  Cycle:     50 Energy:     -1016.313076  Gnorm:      0.003392  CPU:   50.415
  ** Hessian has required structure
  Cycle:     51 Energy:     -1016.313707  Gnorm:      0.000178  CPU:   52.253
  ** Hessian has required structure
  Cycle:     52 Energy:     -1016.313709  Gnorm:      0.000086  CPU:   53.964
  ** Hessian has required structure
  Cycle:     53 Energy:     -1016.313710  Gnorm:      0.000064  CPU:   55.815
  ** Hessian has required structure
  Cycle:     54 Energy:     -1016.313710  Gnorm:      0.000064  CPU:   57.818
  ** Hessian has required structure
  Cycle:     55 Energy:     -1016.313710  Gnorm:      0.000063  CPU:   59.773
  ** Hessian has required structure
  Cycle:     56 Energy:     -1016.313710  Gnorm:      0.000063  CPU:   62.045
  ** Hessian has required structure
  Cycle:     57 Energy:     -1016.313710  Gnorm:      0.000063  CPU:   64.063
  ** Hessian has required structure
  Cycle:     58 Energy:     -1016.313710  Gnorm:      0.000063  CPU:   66.236
  ** Hessian has required structure
  Cycle:     59 Energy:     -1016.313710  Gnorm:      0.000062  CPU:   68.751
  ** Hessian has required structure
  Cycle:     60 Energy:     -1016.313710  Gnorm:      0.000062  CPU:   71.022
  ** Hessian has required structure
  Cycle:     61 Energy:     -1016.313710  Gnorm:      0.000062  CPU:   73.063
  ** Hessian has required structure
  Cycle:     62 Energy:     -1016.313710  Gnorm:      0.000062  CPU:   75.161
  ** Hessian has required structure
  Cycle:     63 Energy:     -1016.313710  Gnorm:      0.000062  CPU:   77.313
  ** Hessian has required structure
  Cycle:     64 Energy:     -1016.313710  Gnorm:      0.000061  CPU:   79.515
  ** Hessian has required structure


  **** Too many failed attempts to optimise ****

  Final energy =   -1016.31370964 eV
  Final Gnorm  =       0.00006118

  Components of energy : 

--------------------------------------------------------------------------------
  Interatomic potentials     =        -228.83908419 eV
  Three-body potentials      =           0.31534892 eV
  Four-body potentials       =           0.00000000 eV
  Improper torsions          =           0.00000000 eV
  Out of plane potentials    =           0.33944462 eV
  Monopole - monopole (real) =         -60.45143983 eV
  Monopole - monopole (recip)=        -727.67797915 eV
  Monopole - monopole (total)=        -788.12941898 eV
--------------------------------------------------------------------------------
  Total lattice energy       =       -1016.31370964 eV
--------------------------------------------------------------------------------
  Total lattice energy       =          -98058.7372 kJ/(mole unit cells)
--------------------------------------------------------------------------------
  Attachment energy          =         -11.83667337 eV
  Attachment energy/unit     =          -1.97277889 eV
--------------------------------------------------------------------------------

  Final fractional/Cartesian coordinates of atoms :

--------------------------------------------------------------------------------
   No.  Atomic        x           y          z          Radius
        Label       (Frac)      (Frac)     (Angs)       (Angs) 
--------------------------------------------------------------------------------
     1  C     c     0.464600    0.082166  -12.095911    0.000000
     2  O     c     0.279706    0.063321  -12.666135    0.000000
     3  O     c     0.383877    0.119790  -11.172029    0.000000
     4  O     c     0.709404    0.070442  -12.390532    0.000000
     5  O     c     0.781736    0.054901   -8.753851    0.000000
     6  C     c     0.027563    0.046048   -9.013154    0.000000
     7  O     c     0.131310    0.007950   -9.865971    0.000000
     8  O     c     0.183970    0.069635   -8.335091    0.000000
     9  Ca    c     0.923309    0.151426  -12.064363    0.000000
    10  Ca    c     0.010760    0.069019   -5.994366    0.000000
    11  Ca    c     0.734411    0.318093  -12.064444    0.000000
    12  C     c     0.840918    0.212716   -9.013366    0.000000
    13  O     c     0.813354    0.174618   -9.866158    0.000000
    14  O     c     0.637344    0.236304   -8.335257    0.000000
    15  O     c     0.069042    0.221569   -8.754146    0.000000
    16  C     c     0.331638    0.248833  -12.096019    0.000000
    17  O     c     0.337116    0.286457  -11.172150    0.000000
    18  O     c     0.110282    0.237109  -12.390635    0.000000
    19  O     c     0.554221    0.229988  -12.666250    0.000000
    20  Ca    c     0.515856    0.058865   -2.813940    0.000000
    21  O     c     0.181226    0.155387   -6.124346    0.000000
    22  C     c     0.409349    0.164241   -5.865100    0.000000
    23  O     c     0.612926    0.140653   -6.543198    0.000000
    24  O     c     0.436910    0.202338   -5.012295    0.000000
    25  O     c     0.946366    0.396657  -12.666298    0.000000
    26  C     c     0.131261    0.415502  -12.096077    0.000000
    27  O     c     0.050540    0.453126  -11.172203    0.000000
    28  O     c     0.376065    0.403777  -12.390698    0.000000
    29  Ca    c     0.239507    0.307937   -8.884054    0.000000
    30  Ca    c     0.438527    0.141270   -8.883957    0.000000
    31  C     c     0.998293    0.582169  -12.095996    0.000000
    32  O     c     0.003769    0.619791  -11.172079    0.000000
    33  O     c     0.220875    0.563326  -12.666241    0.000000
    34  O     c     0.776936    0.570446  -12.390632    0.000000
    35  Ca    c     0.401068    0.651429  -12.064295    0.000000
    36  Ca    c     0.589965    0.484761  -12.064457    0.000000
    37  C     c     0.694224    0.379384   -9.013441    0.000000
    38  O     c     0.850620    0.402972   -8.335311    0.000000
    39  O     c     0.448394    0.388236   -8.754217    0.000000
    40  O     c     0.797984    0.341288   -9.866260    0.000000
    41  Ca    c     0.326956    0.225532   -2.814094    0.000000
    42  Ca    c     0.105189    0.474604   -8.884102    0.000000
    43  C     c     0.918624    0.128125   -2.782414    0.000000
    44  O     c     0.913140    0.090502   -3.706286    0.000000
    45  O     c     0.139982    0.139848   -2.487811    0.000000
    46  O     c     0.696044    0.146971   -2.212159    0.000000
    47  C     c     0.222709    0.330905   -5.865220    0.000000
    48  O     c     0.066306    0.307318   -6.543331    0.000000
    49  O     c     0.118956    0.369000   -5.012366    0.000000
    50  O     c     0.468536    0.322053   -6.124512    0.000000
    51  O     c     0.540860    0.306515   -2.487911    0.000000
    52  C     c     0.785664    0.294790   -2.782531    0.000000
    53  O     c     0.866386    0.257166   -3.706411    0.000000
    54  O     c     0.970558    0.313635   -2.212300    0.000000
    55  O     c     0.480013    0.507956   -9.866254    0.000000
    56  C     c     0.507580    0.546051   -9.013400    0.000000
    57  O     c     0.304008    0.569638   -8.335262    0.000000
    58  O     c     0.735706    0.554902   -8.754145    0.000000
    59  Ca    c     0.677431    0.402351   -5.994577    0.000000
    60  Ca    c     0.811741    0.235685   -5.994492    0.000000
    61  Ca    c     0.256625    0.818096  -12.064068    0.000000
    62  Ca    c     0.771850    0.807938   -8.883719    0.000000
    63  C     c     0.797913    0.748836  -12.095725    0.000000
    64  O     c     0.613025    0.729993  -12.666046    0.000000
    65  O     c     0.042719    0.737114  -12.390316    0.000000
    66  O     c     0.717180    0.786456  -11.171783    0.000000
    67  C     c     0.360880    0.712717   -9.013258    0.000000
    68  O     c     0.517269    0.736306   -8.335121    0.000000
    69  O     c     0.464641    0.674620   -9.866065    0.000000
    70  O     c     0.115048    0.721571   -8.754071    0.000000
    71  O     c     0.443612    0.903777  -12.390367    0.000000
    72  C     c     0.664966    0.915502  -12.095761    0.000000
    73  O     c     0.887546    0.896659  -12.666029    0.000000
    74  O     c     0.670443    0.953126  -11.171875    0.000000
    75  Ca    c     0.906170    0.641271   -8.883982    0.000000
    76  Ca    c     0.478415    0.569017   -5.994530    0.000000
    77  C     c     0.585296    0.461456   -2.782600    0.000000
    78  O     c     0.579820    0.423832   -3.706490    0.000000
    79  O     c     0.362714    0.480300   -2.212352    0.000000
    80  O     c     0.806651    0.473180   -2.487980    0.000000
    81  O     c     0.732983    0.640651   -6.543263    0.000000
    82  C     c     0.889384    0.664237   -5.865115    0.000000
    83  O     c     0.785630    0.702330   -5.012228    0.000000
    84  O     c     0.135211    0.655386   -6.124395    0.000000
    85  Ca    c     0.993629    0.558863   -2.814185    0.000000
    86  C     c     0.076022    0.497571   -5.865207    0.000000
    87  O     c     0.103590    0.535666   -5.012377    0.000000
    88  O     c     0.847896    0.488719   -6.124426    0.000000
    89  O     c     0.279592    0.473983   -6.543349    0.000000
    90  Ca    c     0.182519    0.392197   -2.814193    0.000000
    91  Ca    c     0.572848    0.974603   -8.883754    0.000000
    92  C     c     0.742685    0.830903   -5.864886    0.000000
    93  O     c     0.770256    0.868998   -5.012042    0.000000
    94  O     c     0.946253    0.807313   -6.543008    0.000000
    95  O     c     0.514555    0.822054   -6.124144    0.000000
    96  Ca    c     0.849192    0.725528   -2.814047    0.000000
    97  Ca    c     0.145080    0.902353   -5.994081    0.000000
    98  C     c     0.174229    0.879391   -9.013000    0.000000
    99  O     c     0.146598    0.841307   -9.865980    0.000000
   100  O     c     0.402376    0.888236   -8.753976    0.000000
   101  O     c     0.970699    0.902974   -8.334525    0.000000
   102  Ca    c     0.067745    0.984760  -12.064194    0.000000
   103  Ca    c     0.344101    0.735683   -5.994361    0.000000
   104  C     c     0.452338    0.628121   -2.782528    0.000000
   105  O     c     0.637233    0.646964   -2.212269    0.000000
   106  O     c     0.207534    0.639845   -2.487893    0.000000
   107  O     c     0.533057    0.590499   -3.706453    0.000000
   108  O     c     0.246497    0.757165   -3.706259    0.000000
   109  C     c     0.251972    0.794788   -2.782351    0.000000
   110  O     c     0.029390    0.813631   -2.212102    0.000000
   111  O     c     0.473328    0.806511   -2.487718    0.000000
   112  C     c     0.556042    0.997573   -5.864871    0.000000
   113  O     c     0.399656    0.973983   -6.543033    0.000000
   114  O     c     0.801875    0.988721   -6.123998    0.000000
   115  O     c     0.452267    0.035669   -5.012089    0.000000
   116  C     c     0.119006    0.961456   -2.782201    0.000000
   117  O     c     0.303902    0.980301   -2.212015    0.000000
   118  O     c     0.199727    0.923829   -3.706034    0.000000
   119  O     c     0.874201    0.973181   -2.487604    0.000000
   120  Ca    c     0.660303    0.892196   -2.813836    0.000000
   121  O     s     0.272467    0.064639  -12.621043    0.000000
   122  O     s     0.379341    0.119774  -11.179053    0.000000
   123  O     s     0.712517    0.071611  -12.362658    0.000000
   124  O     s     0.781510    0.053971   -8.754383    0.000000
   125  O     s     0.133678    0.008016   -9.849827    0.000000
   126  O     s     0.185962    0.068511   -8.340140    0.000000
   127  O     s     0.810852    0.174684   -9.850014    0.000000
   128  O     s     0.637598    0.235180   -8.340302    0.000000
   129  O     s     0.071130    0.220638   -8.754676    0.000000
   130  O     s     0.341683    0.286442  -11.179175    0.000000
   131  O     s     0.104832    0.238278  -12.362765    0.000000
   132  O     s     0.558825    0.231305  -12.621161    0.000000
   133  O     s     0.179138    0.156318   -6.123814    0.000000
   134  O     s     0.612672    0.141777   -6.538151    0.000000
   135  O     s     0.439411    0.202272   -5.028438    0.000000
   136  O     s     0.939127    0.397975  -12.621209    0.000000
   137  O     s     0.046004    0.453111  -11.179226    0.000000
   138  O     s     0.379178    0.404946  -12.362826    0.000000
   139  O     s     0.008336    0.619776  -11.179102    0.000000
   140  O     s     0.225479    0.564643  -12.621151    0.000000
   141  O     s     0.771487    0.571614  -12.362759    0.000000
   142  O     s     0.852612    0.401848   -8.340360    0.000000
   143  O     s     0.448167    0.387306   -8.754744    0.000000
   144  O     s     0.800353    0.341354   -9.850117    0.000000
   145  O     s     0.908573    0.090517   -3.699255    0.000000
   146  O     s     0.145432    0.138680   -2.515679    0.000000
   147  O     s     0.691439    0.145653   -2.257249    0.000000
   148  O     s     0.064314    0.308442   -6.538282    0.000000
   149  O     s     0.116587    0.368934   -5.028513    0.000000
   150  O     s     0.468762    0.322984   -6.123981    0.000000
   151  O     s     0.537747    0.305346   -2.515783    0.000000
   152  O     s     0.870922    0.257182   -3.699386    0.000000
   153  O     s     0.977797    0.312317   -2.257389    0.000000
   154  O     s     0.477512    0.508022   -9.850110    0.000000
   155  O     s     0.304263    0.568514   -8.340305    0.000000
   156  O     s     0.737794    0.553972   -8.754675    0.000000
   157  O     s     0.605786    0.731310  -12.620954    0.000000
   158  O     s     0.045832    0.738283  -12.362448    0.000000
   159  O     s     0.712642    0.786441  -11.178812    0.000000
   160  O     s     0.519260    0.735183   -8.340163    0.000000
   161  O     s     0.467008    0.674687   -9.849926    0.000000
   162  O     s     0.114821    0.720640   -8.754599    0.000000
   163  O     s     0.438162    0.904946  -12.362498    0.000000
   164  O     s     0.892150    0.897976  -12.620938    0.000000
   165  O     s     0.675010    0.953110  -11.178898    0.000000
   166  O     s     0.575253    0.423848   -3.699465    0.000000
   167  O     s     0.358110    0.478982   -2.257441    0.000000
   168  O     s     0.812101    0.472011   -2.515850    0.000000
   169  O     s     0.730991    0.641775   -6.538217    0.000000
   170  O     s     0.783260    0.702265   -5.028372    0.000000
   171  O     s     0.135438    0.656316   -6.123864    0.000000
   172  O     s     0.106091    0.535600   -5.028520    0.000000
   173  O     s     0.845808    0.489649   -6.123895    0.000000
   174  O     s     0.279338    0.475107   -6.538304    0.000000
   175  O     s     0.772755    0.868933   -5.028177    0.000000
   176  O     s     0.945997    0.808436   -6.537973    0.000000
   177  O     s     0.512468    0.822984   -6.123613    0.000000
   178  O     s     0.144101    0.841372   -9.849821    0.000000
   179  O     s     0.404466    0.887305   -8.754499    0.000000
   180  O     s     0.970953    0.901851   -8.339590    0.000000
   181  O     s     0.644472    0.645647   -2.257358    0.000000
   182  O     s     0.204421    0.638676   -2.515765    0.000000
   183  O     s     0.537593    0.590515   -3.699428    0.000000
   184  O     s     0.241931    0.757180   -3.699236    0.000000
   185  O     s     0.024786    0.812314   -2.257189    0.000000
   186  O     s     0.478778    0.805343   -2.515588    0.000000
   187  O     s     0.397663    0.975107   -6.537979    0.000000
   188  O     s     0.802101    0.989652   -6.123468    0.000000
   189  O     s     0.449899    0.035603   -5.028233    0.000000
   190  O     s     0.311140    0.978984   -2.257106    0.000000
   191  O     s     0.204263    0.923845   -3.699017    0.000000
   192  O     s     0.871089    0.972013   -2.515479    0.000000
--------------------------------------------------------------------------------

  Final Cartesian surface vectors (Angstroms) :

        5.096064    0.000004    0.000000
        5.096081   22.532394    0.000000


  Final surface cell parameters and derivatives :

--------------------------------------------------------------------------------
       a            5.096064 Angstrom     dE/de1(xx)     0.000703 eV/strain
       b           23.101490 Angstrom     dE/de2(yy)     0.007305 eV/strain
       alpha       77.255958 Degrees      dE/de3(xy)     0.000987 eV/strain
--------------------------------------------------------------------------------

  Surface cell area =    114.826499 Angs**2

  Final internal/Cartesian derivatives :

--------------------------------------------------------------------------------
   No.  Atomic          a             b             z           Radius
        Label          (eV)          (eV)       (eV/Angs)      (eV/Angs)
--------------------------------------------------------------------------------
      1 C     c      -0.001333     -0.002706     -0.000140      0.000000
      2 O     c       0.000478     -0.001706     -0.000078      0.000000
      3 O     c      -0.000729      0.006317      0.000226      0.000000
      4 O     c       0.001126     -0.000930     -0.000090      0.000000
      5 O     c       0.000135      0.000715      0.000067      0.000000
      6 C     c       0.000134      0.003276      0.000145      0.000000
      7 O     c       0.000005     -0.003176     -0.000171      0.000000
      8 O     c      -0.000574     -0.001221      0.000082      0.000000
      9 Ca    c       0.000339     -0.002344     -0.000029      0.000000
     10 Ca    c      -0.000083      0.000121      0.000017      0.000000
     11 Ca    c      -0.000070     -0.000798     -0.000005      0.000000
     12 C     c      -0.000212      0.002269      0.000145      0.000000
     13 O     c       0.000060     -0.001273     -0.000092      0.000000
     14 O     c       0.001112     -0.000598      0.000005      0.000000
     15 O     c      -0.000861     -0.001098      0.000021      0.000000
     16 C     c       0.001328     -0.000188     -0.000128      0.000000
     17 O     c       0.000662      0.006788      0.000195      0.000000
     18 O     c      -0.001039     -0.003141     -0.000084      0.000000
     19 O     c      -0.000755     -0.002455     -0.000059      0.000000
     20 Ca    c       0.000068      0.001130     -0.000005      0.000000
     21 O     c       0.000296      0.000283     -0.000069      0.000000
     22 C     c       0.000248     -0.001993     -0.000130      0.000000
     23 O     c      -0.000587      0.000193     -0.000084      0.000000
     24 O     c       0.000032      0.002475      0.000120      0.000000
     25 O     c       0.000484     -0.001531     -0.000080      0.000000
     26 C     c      -0.001462     -0.003148     -0.000142      0.000000
     27 O     c      -0.000685      0.006394      0.000243      0.000000
     28 O     c       0.001258     -0.001418     -0.000103      0.000000
     29 Ca    c       0.000082     -0.000318     -0.000049      0.000000
     30 Ca    c       0.000092      0.000457     -0.000011      0.000000
     31 C     c       0.001406     -0.000309     -0.000128      0.000000
     32 O     c       0.000621      0.005767      0.000158      0.000000
     33 O     c      -0.000890     -0.001806     -0.000037      0.000000
     34 O     c      -0.000945     -0.003232     -0.000092      0.000000
     35 Ca    c      -0.000071     -0.000581     -0.000011      0.000000
     36 Ca    c       0.000380     -0.002582     -0.000042      0.000000
     37 C     c       0.000212      0.002547      0.000128      0.000000
     38 O     c      -0.001482     -0.003999     -0.000080      0.000000
     39 O     c       0.001175      0.001194     -0.000003      0.000000
     40 O     c      -0.000177     -0.000207     -0.000026      0.000000
     41 Ca    c      -0.000367      0.002281      0.000026      0.000000
     42 Ca    c       0.000023     -0.000390     -0.000054      0.000000
     43 C     c      -0.001454     -0.000145      0.000110      0.000000
     44 O     c      -0.000751     -0.006171     -0.000178      0.000000
     45 O     c       0.001020      0.002956      0.000059      0.000000
     46 O     c       0.000894      0.002124      0.000034      0.000000
     47 C     c      -0.000209     -0.002143     -0.000118      0.000000
     48 O     c       0.001324      0.003545      0.000063      0.000000
     49 O     c       0.000239     -0.000344     -0.000005      0.000000
     50 O     c      -0.001234     -0.001098     -0.000020      0.000000
     51 O     c      -0.001183      0.001182      0.000082      0.000000
     52 C     c       0.001399      0.003041      0.000136      0.000000
     53 O     c       0.000736     -0.006464     -0.000247      0.000000
     54 O     c      -0.000553      0.001579      0.000070      0.000000
     55 O     c       0.000058     -0.000143     -0.000045      0.000000
     56 C     c      -0.000536      0.001406      0.000101      0.000000
     57 O     c       0.001085     -0.001191     -0.000046      0.000000
     58 O     c      -0.000561     -0.000177      0.000041      0.000000
     59 Ca    c       0.000010     -0.000003      0.000041      0.000000
     60 Ca    c      -0.000125     -0.000938      0.000004      0.000000
     61 Ca    c       0.000196     -0.001559     -0.000041      0.000000
     62 Ca    c      -0.000124     -0.000185     -0.000080      0.000000
     63 C     c      -0.001353     -0.003175     -0.000126      0.000000
     64 O     c       0.000527     -0.000978     -0.000062      0.000000
     65 O     c       0.001118     -0.001777     -0.000110      0.000000
     66 O     c      -0.000664      0.006114      0.000226      0.000000
     67 C     c       0.000302      0.002730      0.000107      0.000000
     68 O     c      -0.001449     -0.004136     -0.000101      0.000000
     69 O     c      -0.000207      0.000286     -0.000033      0.000000
     70 O     c       0.001184      0.001023     -0.000028      0.000000
     71 O     c      -0.000959     -0.003162     -0.000075      0.000000
     72 C     c       0.001411     -0.000420     -0.000126      0.000000
     73 O     c      -0.000875     -0.002418     -0.000039      0.000000
     74 O     c       0.000752      0.006678      0.000215      0.000000
     75 Ca    c       0.000073     -0.000933     -0.000080      0.000000
     76 Ca    c       0.000044      0.000204      0.000042      0.000000
     77 C     c      -0.001453      0.000276      0.000118      0.000000
     78 O     c      -0.000705     -0.005897     -0.000155      0.000000
     79 O     c       0.000940      0.001970      0.000019      0.000000
     80 O     c       0.000965      0.003142      0.000073      0.000000
     81 O     c       0.001603      0.004891      0.000126      0.000000
     82 C     c      -0.000364     -0.001986     -0.000086      0.000000
     83 O     c       0.000349     -0.001545     -0.000054      0.000000
     84 O     c      -0.001408     -0.001333      0.000007      0.000000
     85 Ca    c      -0.000363      0.002235      0.000033      0.000000
     86 C     c       0.000463     -0.001750     -0.000132      0.000000
     87 O     c      -0.000222     -0.001856     -0.000038      0.000000
     88 O     c       0.001197      0.001566     -0.000007      0.000000
     89 O     c      -0.001570      0.001423      0.000095      0.000000
     90 Ca    c       0.000109      0.000831      0.000002      0.000000
     91 Ca    c       0.000060      0.000606     -0.000034      0.000000
     92 C     c       0.000752     -0.001553     -0.000104      0.000000
     93 O     c       0.000230      0.001302      0.000025      0.000000
     94 O     c      -0.001203     -0.000303      0.000089      0.000000
     95 O     c       0.000139      0.000337     -0.000074      0.000000
     96 Ca    c       0.000022      0.000194     -0.000010      0.000000
     97 Ca    c       0.000186      0.001476      0.000072      0.000000
     98 C     c      -0.000435      0.000302      0.000056      0.000000
     99 O     c       0.000476      0.010376      0.000334      0.000000
    100 O     c      -0.002791     -0.004904     -0.000140      0.000000
    101 O     c       0.000000      0.000000      0.000000      0.000000
    102 Ca    c      -0.000156     -0.001295     -0.000019      0.000000
    103 Ca    c       0.000009      0.000804      0.000071      0.000000
    104 C     c       0.001503      0.003371      0.000124      0.000000
    105 O     c      -0.000592      0.001014      0.000065      0.000000
    106 O     c      -0.001203      0.001391      0.000087      0.000000
    107 O     c       0.000721     -0.005810     -0.000228      0.000000
    108 O     c      -0.000644     -0.005505     -0.000149      0.000000
    109 C     c      -0.001494      0.000420      0.000119      0.000000
    110 O     c       0.001078      0.001680     -0.000006      0.000000
    111 O     c       0.000914      0.003504      0.000079      0.000000
    112 C     c      -0.000122     -0.002870     -0.000172      0.000000
    113 O     c       0.001097      0.002687      0.000022      0.000000
    114 O     c      -0.001052     -0.001427     -0.000029      0.000000
    115 O     c       0.000150      0.001376      0.000064      0.000000
    116 C     c       0.000935      0.002222      0.000111      0.000000
    117 O     c      -0.000075      0.002287      0.000111      0.000000
    118 O     c       0.000495     -0.006733     -0.000232      0.000000
    119 O     c      -0.001003      0.000764      0.000080      0.000000
    120 Ca    c      -0.000406      0.002506      0.000030      0.000000
    121 O     s      -0.000217      0.002397      0.000046      0.000000
    122 O     s       0.000134     -0.002256     -0.000000      0.000000
    123 O     s       0.000095      0.000449     -0.000010      0.000000
    124 O     s      -0.000054     -0.000216     -0.000076      0.000000
    125 O     s       0.000205      0.000697      0.000036      0.000000
    126 O     s       0.000200     -0.000024     -0.000138      0.000000
    127 O     s      -0.000080      0.000994      0.000045      0.000000
    128 O     s      -0.000051      0.000506     -0.000152      0.000000
    129 O     s       0.000017      0.000571     -0.000036      0.000000
    130 O     s      -0.000106     -0.002375      0.000005      0.000000
    131 O     s      -0.000149      0.000184     -0.000012      0.000000
    132 O     s       0.000213      0.001912      0.000039      0.000000
    133 O     s      -0.000116     -0.000473      0.000057      0.000000
    134 O     s       0.000029     -0.000340      0.000148      0.000000
    135 O     s       0.000141     -0.000650     -0.000047      0.000000
    136 O     s      -0.000288      0.002371      0.000054      0.000000
    137 O     s       0.000070     -0.001475      0.000005      0.000000
    138 O     s       0.000130      0.000827     -0.000001      0.000000
    139 O     s      -0.000117     -0.001843      0.000005      0.000000
    140 O     s       0.000195      0.001766      0.000039      0.000000
    141 O     s      -0.000132      0.000376      0.000006      0.000000
    142 O     s       0.000161      0.000367     -0.000091      0.000000
    143 O     s       0.000075      0.000365     -0.000030      0.000000
    144 O     s       0.000063      0.001048      0.000056      0.000000
    145 O     s       0.000203      0.002268     -0.000002      0.000000
    146 O     s       0.000108     -0.000079      0.000008      0.000000
    147 O     s      -0.000217     -0.001921     -0.000057      0.000000
    148 O     s      -0.000175      0.000296      0.000096      0.000000
    149 O     s      -0.000091     -0.000922     -0.000065      0.000000
    150 O     s      -0.000005     -0.000062      0.000036      0.000000
    151 O     s      -0.000141     -0.000580     -0.000004      0.000000
    152 O     s      -0.000101      0.001824     -0.000008      0.000000
    153 O     s       0.000279     -0.002266     -0.000064      0.000000
    154 O     s      -0.000110      0.000501      0.000056      0.000000
    155 O     s       0.000048      0.000570     -0.000102      0.000000
    156 O     s       0.000051      0.000226     -0.000039      0.000000
    157 O     s      -0.000232      0.001359      0.000022      0.000000
    158 O     s       0.000167      0.001091      0.000010      0.000000
    159 O     s       0.000100     -0.001500      0.000019      0.000000
    160 O     s       0.000103      0.000592     -0.000062      0.000000
    161 O     s       0.000024      0.000257      0.000083      0.000000
    162 O     s       0.000038      0.000517     -0.000003      0.000000
    163 O     s      -0.000169     -0.000133     -0.000017      0.000000
    164 O     s       0.000242      0.002358      0.000035      0.000000
    165 O     s      -0.000210     -0.001539     -0.000038      0.000000
    166 O     s       0.000146      0.002011     -0.000019      0.000000
    167 O     s      -0.000217     -0.002048     -0.000046      0.000000
    168 O     s       0.000125     -0.000225     -0.000003      0.000000
    169 O     s      -0.000210     -0.000171      0.000050      0.000000
    170 O     s      -0.000045     -0.000831     -0.000090      0.000000
    171 O     s      -0.000041     -0.000086      0.000014      0.000000
    172 O     s       0.000086     -0.000322     -0.000062      0.000000
    173 O     s      -0.000010     -0.000135      0.000015      0.000000
    174 O     s      -0.000003      0.000150      0.000107      0.000000
    175 O     s      -0.000100     -0.000606     -0.000030      0.000000
    176 O     s      -0.000024      0.001059     -0.000018      0.000000
    177 O     s       0.000061     -0.000720      0.000027      0.000000
    178 O     s      -0.000063      0.001187      0.000079      0.000000
    179 O     s      -0.000222     -0.000547      0.000018      0.000000
    180 O     s      -0.000141     -0.000898     -0.000011      0.000000
    181 O     s       0.000287     -0.002185     -0.000064      0.000000
    182 O     s      -0.000174     -0.000878     -0.000006      0.000000
    183 O     s      -0.000130      0.001203     -0.000023      0.000000
    184 O     s       0.000125      0.001507     -0.000027      0.000000
    185 O     s      -0.000179     -0.001341     -0.000021      0.000000
    186 O     s       0.000102     -0.000503     -0.000010      0.000000
    187 O     s       0.000077     -0.000172      0.000106      0.000000
    188 O     s      -0.000044     -0.000608      0.000037      0.000000
    189 O     s      -0.000132     -0.001035     -0.000032      0.000000
    190 O     s       0.000305     -0.002405     -0.000078      0.000000
    191 O     s       0.000025      0.002634     -0.000005      0.000000
    192 O     s      -0.000109     -0.000800     -0.000025      0.000000
--------------------------------------------------------------------------------
  Maximum abs         0.002791      0.010376      0.000334      0.000000
--------------------------------------------------------------------------------


  Time to end of optimisation =      81.6400 seconds


  Peak dynamic memory used =       7.79 MB 


  Timing analysis for GULP :

--------------------------------------------------------------------------------
  Task / Subroutine                                          Time (Seconds)
--------------------------------------------------------------------------------
  Calculation of reciprocal space energy and derivatives         15.9475
  Calculation of real space energy and derivatives               34.8310
  Calculation of three-body energy and derivatives                0.0788
  Calculation of four-body energy and derivatives                 0.0972
  Calculation of molecules and connectivity                       0.0237
  Calculation of matrix inversion                                 0.3798
  Global summation overhead                                       0.0016
--------------------------------------------------------------------------------
  Total CPU time                                                 81.6401
--------------------------------------------------------------------------------


  Dump file written as calcite_104_0.0000.res                                  



  **** GULP has completed with   2 warnings - beware! ****

  Job Finished at 11:13.43 24th February   2015                               

