 +-------------------------------------------------+
 |                                                 |
 |      CCC   AA    SSS  TTTTT  EEEEE  PPPP        |
 |     C     A  A  S       T    E      P   P       |
 |     C     AAAA   SS     T    EEE    PPPP        |
 |     C     A  A     S    T    E      P           |
 |      CCC  A  A  SSS     T    EEEEE  P           |
 |                                                 |
 +-------------------------------------------------+
 |                                                 |
 | Welcome to Materials Studio CASTEP version 3.0  |
 | Ab Initio Total Energy Program                  |
 |                                                 |
 | Authors:                                        |
 | M. Segall, M. Probert, C. Pickard, P. Hasnip    |
 | S. Clark, K. Refson, M. Payne                   |
 |                                                 |
 | Contributors:                                   |
 | P. Lindan, P. Haynes, J. White, V. Milman       |
 | N. Govind, M. Gibson, P. Tulip, V. Cocula       |
 | B. Montanari                                    |
 |                                                 |
 | Copyright (c) 2000,2001,2002,2003               |
 |                                                 |
 | Please cite                                     |
 |                                                 |
 |    "First-principles simulation: ideas,         |
 |    illustrations and the CASTEP code",          |
 |                                                 |
 | J. Phys.: Cond. Matt. 14(11) pp.2717-2743 (2002)|
 |                                                 |
 | M. D. Segall, P. L. D. Lindan, M. J. Probert,   |
 | C. J. Pickard, P. J. Hasnip, S. J. Clark,       |
 | M. C. Payne                                     |
 |                                                 |
 |       in all publications arising from          |
 |              your use of CASTEP                 |
 |                                                 |
 +-------------------------------------------------+
 
License checkout of MS_castep successful
Number of licenses checked out     1
 
 
 Pseudo atomic calculation performed for H 1s1
 
 Converged in 22 iterations to a total energy of -12.472095 eV
 
 
 Pseudo atomic calculation performed for C 2s2 2p2
 
 Converged in 34 iterations to a total energy of -146.441546 eV
 
 
 Pseudo atomic calculation performed for N 2s2 2p3
 
 Converged in 30 iterations to a total energy of -263.680177 eV
 
 
 Pseudo atomic calculation performed for O 2s2 2p4
 
 Converged in 36 iterations to a total energy of -431.041234 eV
 
Calculation parallelised over    1 nodes.
K-points are distributed over    1 groups, each containing    1 nodes.

 ************************************ Title ************************************
 CASTEP calculation from Materials Studio

 ***************************** General Parameters ******************************
  
 output verbosity                               : normal  (1)
 write checkpoint data to                       : urea.check
 type of calculation                            : geometry optimization
 stress calculation                             : on
 unlimited duration calculation
 timing information                             : on
  
 output         length unit                     : A
 output           mass unit                     : amu
 output           time unit                     : ps
 output         charge unit                     : e
 output         energy unit                     : eV
 output          force unit                     : eV/A
 output       velocity unit                     : A/ps
 output       pressure unit                     : GPa
 output     inv_length unit                     : 1/A
 output      frequency unit                     : cm-1
 output force constant unit                     : eV/A**2
 output         volume unit                     : A**3
  
 wavefunctions paging                           : none
 random number generator seed                   : randomised (181149251)
 data distribution                              : optimal for this architecture
 optimization strategy                          : balance speed and memory

 *********************** Exchange-Correlation Parameters ***********************
  
 using functional                               : Perdew Burke Ernzerhof

 ************************* Pseudopotential Parameters **************************
  
 pseudopotential representation                 : reciprocal space
 <beta|phi> representation                      : reciprocal space

 **************************** Basis Set Parameters *****************************
  
 plane wave basis set cut-off                   :   600.0000   eV
 size of standard grid                          :     1.7500
 size of fine grid                              :    21.9610   1/A
 finite basis set correction                    : automatic
 number of sample energies                      :          3
           sample  spacing                      :     5.0000   eV

 **************************** Electronic Parameters ****************************
  
 number of  electrons                           :         48
 net charge of system                           :          0
 net spin   of system                           :          0
 number of  up  spins                           :         24
 number of down spins                           :         24
 treating system as non-spin-polarized
 number of bands                                :         28

 ********************* Electronic Minimization Parameters **********************
  
 Method: Treating system as metallic with density mixing treatment of electrons,
         and number of  SD  steps               :          1
         and number of  CG  steps               :          4
  
 total energy / atom convergence tol.           : 0.5000E-06   eV
 eigen-energy convergence tolerance             : 0.2857E-06   eV
 convergence tolerance window                   :          3   cycles
 max. number of SCF cycles                      :        100
 number of fixed-spin iterations                :         10
 smearing scheme                                : Gaussian
 smearing width                                 : 0.1000       eV
 Fermi energy convergence tolerance             : 0.2857E-07   eV

 ************************** Density Mixing Parameters **************************
  
 density-mixing scheme                          : Pulay
 max. length of mixing history                  :         20
 charge density mixing amplitude                : 0.5000    
 cut-off energy for mixing                      :  600.0       eV
 charge density mixing g-vector                 :  1.500       1/A

 ********************** Geometry Optimization Parameters ***********************
  
 optimization method                            : BFGS
 variable cell method                           : fixed basis quality
 max. number of steps                           :        100
 estimated bulk modulus                         :  500.0       GPa
 estimated <frequency>                          :  1668.       cm-1
 total energy convergence tolerance             : 0.5000E-05   eV/atom
        max ionic |force| tolerance             : 0.1000E-01   eV/A
 max ionic |displacement| tolerance             : 0.5000E-03   A
   max |stress component| tolerance             : 0.2000E-01   GPa
 convergence tolerance window                   :          2   steps
 backup results every                           :          5   steps

 *******************************************************************************
  
 
                           -------------------------------
                                      Unit Cell
                           -------------------------------
        Real Lattice(A)                      Reciprocal Lattice(1/A)
   5.5760000   0.0000000   0.0000000        1.1268266   0.0000000   0.0000000
   0.0000000   5.5760000   0.0000000        0.0000000   1.1268266   0.0000000
   0.0000000   0.0000000   4.6860000        0.0000000   0.0000000   1.3408419
 
                       Lattice parameters(A)       Cell Angles
                    a =    5.576000          alpha =   90.000000
                    b =    5.576000          beta  =   90.000000
                    c =    4.686000          gamma =   90.000000
 
                       Current cell volume =  145.696062       A**3
 
                           -------------------------------
                                     Cell Contents
                           -------------------------------
                         Total number of ions in cell =   16
                      Total number of species in cell =    4
                        Max number of any one species =    8
 
            xxxxxxxxxxxxxxxxxxxxxxxxxxxxxxxxxxxxxxxxxxxxxxxxxxxxxxxxxxxx
            x  Element    Atom        Fractional coordinates of atoms  x
            x            Number           u          v          w      x
            x----------------------------------------------------------x
            x   H          1          0.262000   0.762000   0.291001   x
            x   H          2          0.129000   0.629000  -0.042000   x
            x   H          3         -0.262000  -0.762000   0.291001   x
            x   H          4         -0.129000  -0.629000  -0.042000   x
            x   H          5          0.762000  -0.262000  -0.291001   x
            x   H          6          0.629000  -0.129000   0.042000   x
            x   H          7         -0.762000   0.262000  -0.291001   x
            x   H          8         -0.629000   0.129000   0.042000   x
            x   C          1          0.000000   0.500000   0.328399   x
            x   C          2          0.500000   0.000000  -0.328399   x
            x   N          1          0.144800   0.644800   0.178700   x
            x   N          2         -0.144800  -0.644800   0.178700   x
            x   N          3          0.644800  -0.144800  -0.178700   x
            x   N          4         -0.644800   0.144800  -0.178700   x
            x   O          1          0.000000   0.500000   0.596601   x
            x   O          2          0.500000   0.000000  -0.596601   x
            xxxxxxxxxxxxxxxxxxxxxxxxxxxxxxxxxxxxxxxxxxxxxxxxxxxxxxxxxxxx
 
 
                         No user defined ionic velocities
 
                           -------------------------------
                                   Details of Species
                           -------------------------------
 
                               Mass of species in AMU
                                    H      1.0080000
                                    C     12.0109997
                                    N     14.0070000
                                    O     15.9989996
 
                          Files used for pseudopotentials:
                                    H H_00.usp
                                    C C_00.usp
                                    N N_00.usp
                                    O O_00.usp
 
                           -------------------------------
                              k-Points For BZ Sampling
                           -------------------------------
                         Number of kpoints used =           9
 
             +++++++++++++++++++++++++++++++++++++++++++++++++++++++
             +  Number       Fractional coordinates        Weight  +
             +-----------------------------------------------------+
             +     1   0.375000   0.375000   0.400000   0.1000000  +
             +     2   0.375000   0.375000   0.200000   0.1000000  +
             +     3   0.375000   0.375000   0.000000   0.0500000  +
             +     4   0.375000   0.125000   0.400000   0.2000000  +
             +     5   0.375000   0.125000   0.200000   0.2000000  +
             +     6   0.375000   0.125000   0.000000   0.1000000  +
             +     7   0.125000   0.125000   0.400000   0.1000000  +
             +     8   0.125000   0.125000   0.200000   0.1000000  +
             +     9   0.125000   0.125000   0.000000   0.0500000  +
             +++++++++++++++++++++++++++++++++++++++++++++++++++++++
 
                           -------------------------------
                               Symmetry and Constraints
                           -------------------------------
 
                          Number of symmetry operations =           8
                 Set iprint > 1 for symmetry rotation details
 
                        Centre of mass is NOT constrained
       There are no ionic constraints specified or generated for this cell
 
                         Number of cell constraints= 4
                         Cell constraints are:  1 1 3 0 0 0
 
                         External pressure/stress (GPa)
                          0.00000   0.00000   0.00000
                                    0.00000   0.00000
                                              0.00000
Calculating finite basis set correction with  3 cut-off energies.
Calculating total energy with cut-off of  590.000eV.
------------------------------------------------------------------------ <-- SCF
SCF loop      Energy           Fermi           Energy gain       Timer   <-- SCF
                               energy          per atom          (sec)   <-- SCF
------------------------------------------------------------------------ <-- SCF
Initial  -1.31789479E+003  5.49868985E+001                        20.89  <-- SCF
      1  -2.35604805E+003  9.45342115E-001   6.48845788E+001      95.30  <-- SCF
      2  -2.41612863E+003 -3.25284565E+000   3.75503654E+000     174.55  <-- SCF
      3  -2.40869143E+003 -8.58103656E-001  -4.64825389E-001     256.38  <-- SCF
      4  -2.40834342E+003 -5.94636344E-001  -2.17504079E-002     339.90  <-- SCF
      5  -2.40830057E+003 -3.62989618E-001  -2.67804251E-003     437.01  <-- SCF
      6  -2.40831275E+003 -2.90813095E-001   7.61453997E-004     504.08  <-- SCF
      7  -2.40831889E+003 -2.80313135E-001   3.83695701E-004     559.89  <-- SCF
      8  -2.40832101E+003 -2.63354432E-001   1.32284430E-004     608.20  <-- SCF
      9  -2.40832108E+003 -2.64343556E-001   4.50904158E-006     645.65  <-- SCF
     10  -2.40832108E+003 -2.63268696E-001  -1.42948836E-008     677.15  <-- SCF
     11  -2.40832108E+003 -2.63194874E-001   5.31132219E-008     710.94  <-- SCF
------------------------------------------------------------------------ <-- SCF
Final energy =  -2408.321082510     eV (not corrected for finite basis set)
 
Calculating total energy with cut-off of  595.000eV.
------------------------------------------------------------------------ <-- SCF
SCF loop      Energy           Fermi           Energy gain       Timer   <-- SCF
                               energy          per atom          (sec)   <-- SCF
------------------------------------------------------------------------ <-- SCF
Initial  -2.40832108E+003 -2.63131728E-001                       732.92  <-- SCF
      1  -2.40832497E+003 -2.63151704E-001   2.42794032E-004     779.46  <-- SCF
      2  -2.40832497E+003 -2.63151716E-001   2.34335250E-008     813.00  <-- SCF
      3  -2.40832497E+003 -2.63212684E-001   7.65281613E-008     859.47  <-- SCF
------------------------------------------------------------------------ <-- SCF
Final energy =  -2408.324969213     eV (not corrected for finite basis set)
 
Calculating total energy with cut-off of  600.000eV.
------------------------------------------------------------------------ <-- SCF
SCF loop      Energy           Fermi           Energy gain       Timer   <-- SCF
                               energy          per atom          (sec)   <-- SCF
------------------------------------------------------------------------ <-- SCF
Initial  -2.40832497E+003 -2.63280692E-001                       882.05  <-- SCF
      1  -2.40832888E+003 -2.63306814E-001   2.44614908E-004     924.39  <-- SCF
      2  -2.40832888E+003 -2.63306841E-001   2.37234994E-008     955.25  <-- SCF
      3  -2.40832889E+003 -2.63258644E-001   8.09647603E-008     985.99  <-- SCF
------------------------------------------------------------------------ <-- SCF
Final energy =  -2408.328886130     eV (not corrected for finite basis set)
 
 For future reference: finite basis dEtot/dlog(Ecut) =      -0.480338eV
 Total energy corrected for finite basis set =   -2408.329033 eV
 
 ******************************** Forces *********************************
 *                                                                       *
 *                      Cartesian components (eV/A)                      *
 * --------------------------------------------------------------------- *
 *              x                    y                    z              *
 *                                                                       *
 * H    1     -0.82394             -0.82394             -1.09773         *
 * H    2      0.58254              0.58254              0.65515         *
 * H    3      0.82394              0.82394             -1.09773         *
 * H    4     -0.58254             -0.58254              0.65515         *
 * H    5     -0.82394              0.82394              1.09773         *
 * H    6      0.58254             -0.58254             -0.65515         *
 * H    7      0.82394             -0.82394              1.09773         *
 * H    8     -0.58254              0.58254             -0.65515         *
 * C    1      0.00000              0.00000             -0.49028         *
 * C    2      0.00000              0.00000              0.49028         *
 * N    1      0.41889              0.41889              0.13648         *
 * N    2     -0.41889             -0.41889              0.13648         *
 * N    3      0.41889             -0.41889             -0.13648         *
 * N    4     -0.41889              0.41889             -0.13648         *
 * O    1      0.00000              0.00000              1.11987         *
 * O    2      0.00000              0.00000             -1.11987         *
 *                                                                       *
 *************************************************************************
 
 ***************** Stress Tensor *****************
 *                                               *
 *          Cartesian components (GPa)           *
 * --------------------------------------------- *
 *             x             y             z     *
 *                                               *
 *  x      1.374707      0.000000      0.000000  *
 *  y      0.000000      1.374707      0.000000  *
 *  z      0.000000      0.000000      1.614277  *
 *                                               *
 *  Pressure:   -1.4546                          *
 *                                               *
 *************************************************
 BFGS: finished iteration   0  with enthalpy= -2.40832903E+003 eV
  
 +-----------+-----------------+-----------------+------------+-----+ <-- BFGS
 | Parameter |      value      |    tolerance    |    units   | OK? | <-- BFGS
 +-----------+-----------------+-----------------+------------+-----+ <-- BFGS
 |  dE/ion   |   0.000000E+000 |   5.000000E-006 |         eV | No  | <-- BFGS
 |  |F|max   |   1.600864E+000 |   1.000000E-002 |       eV/A | No  | <-- BFGS
 |  |dR|max  |   0.000000E+000 |   5.000000E-004 |          A | Yes | <-- BFGS
 |   Smax    |   1.614277E+000 |   2.000000E-002 |        GPa | No  | <-- BFGS
 +-----------+-----------------+-----------------+------------+-----+ <-- BFGS
  

================================================================================
 Starting BFGS iteration    1 ...
================================================================================
  
 +------------+-------------+-------------+-----------------+ <-- min BFGS
 |    Step    |   lambda    |   F.delta   |    enthalpy     | <-- min BFGS
 +------------+-------------+-------------+-----------------+ <-- min BFGS
 |  previous  |    0.000000 |    0.009307 |    -2408.329033 | <-- min BFGS
 +------------+-------------+-------------+-----------------+ <-- min BFGS
  

--------------------------------------------------------------------------------
 BFGS: starting iteration   1 with trial guess (lambda=  1.000000)
--------------------------------------------------------------------------------
 
                           -------------------------------
                                      Unit Cell
                           -------------------------------
        Real Lattice(A)              Reciprocal Lattice(1/A)
   5.5708898   0.0000000   0.0000000        1.1278603   0.0000000   0.0000000
   0.0000000   5.5708898   0.0000000        0.0000000   1.1278603   0.0000000
   0.0000000   0.0000000   4.6809570        0.0000000   0.0000000   1.3422865
 
                       Lattice parameters(A)       Cell Angles
                    a =    5.570890          alpha =   90.000000
                    b =    5.570890          beta  =   90.000000
                    c =    4.680957          gamma =   90.000000
 
                Current cell volume =  145.272624 A**3
 
                           -------------------------------
                                     Cell Contents
                           -------------------------------
 
            xxxxxxxxxxxxxxxxxxxxxxxxxxxxxxxxxxxxxxxxxxxxxxxxxxxxxxxxxxxx
            x  Element    Atom        Fractional coordinates of atoms  x
            x            Number           u          v          w      x
            x----------------------------------------------------------x
            x   H          1          0.260075   0.760075   0.287950   x
            x   H          2          0.130360   0.630360  -0.040179   x
            x   H          3         -0.260075  -0.760075   0.287950   x
            x   H          4         -0.130360  -0.630360  -0.040179   x
            x   H          5          0.760075  -0.260075  -0.287950   x
            x   H          6          0.630360  -0.130360   0.040179   x
            x   H          7         -0.760075   0.260075  -0.287950   x
            x   H          8         -0.630360   0.130360   0.040179   x
            x   C          1          0.000000   0.500000   0.327037   x
            x   C          2          0.500000   0.000000  -0.327037   x
            x   N          1          0.145778   0.645778   0.179079   x
            x   N          2         -0.145778  -0.645778   0.179079   x
            x   N          3          0.645778  -0.145778  -0.179079   x
            x   N          4         -0.645778   0.145778  -0.179079   x
            x   O          1          0.000000   0.500000   0.599713   x
            x   O          2          0.500000   0.000000  -0.599713   x
            xxxxxxxxxxxxxxxxxxxxxxxxxxxxxxxxxxxxxxxxxxxxxxxxxxxxxxxxxxxx
 
------------------------------------------------------------------------ <-- SCF
SCF loop      Energy           Fermi           Energy gain       Timer   <-- SCF
                               energy          per atom          (sec)   <-- SCF
------------------------------------------------------------------------ <-- SCF
Initial  -2.29101190E+003 -3.23747390E+000                      1040.87  <-- SCF
      1  -2.41669626E+003 -3.35844011E+000   7.85527239E+000    1115.38  <-- SCF
      2  -2.41669744E+003 -3.35844101E+000   7.35744358E-005    1177.12  <-- SCF
      3  -2.40887397E+003 -9.21463185E-001  -4.88966326E-001    1255.54  <-- SCF
      4  -2.40851458E+003 -6.61875021E-001  -2.24623790E-002    1331.77  <-- SCF
      5  -2.40846814E+003 -4.35208540E-001  -2.90249826E-003    1406.79  <-- SCF
      6  -2.40847993E+003 -3.59384475E-001   7.37209113E-004    1476.83  <-- SCF
      7  -2.40848666E+003 -3.48024667E-001   4.20561344E-004    1537.50  <-- SCF
      8  -2.40848885E+003 -3.31224789E-001   1.36558969E-004    1591.88  <-- SCF
      9  -2.40848892E+003 -3.32025393E-001   4.56263329E-006    1629.13  <-- SCF
     10  -2.40848892E+003 -3.31042056E-001  -4.07482948E-008    1663.31  <-- SCF
     11  -2.40848892E+003 -3.30955684E-001   5.15397276E-008    1708.45  <-- SCF
------------------------------------------------------------------------ <-- SCF
Final energy =  -2408.488918798     eV (not corrected for finite basis set)
 
 
 ******************************** Forces *********************************
 *                                                                       *
 *                      Cartesian components (eV/A)                      *
 * --------------------------------------------------------------------- *
 *              x                    y                    z              *
 *                                                                       *
 * H    1     -0.19441             -0.19441             -0.52256         *
 * H    2      0.54347              0.54347              0.29878         *
 * H    3      0.19441              0.19441             -0.52256         *
 * H    4     -0.54347             -0.54347              0.29878         *
 * H    5     -0.19441              0.19441              0.52256         *
 * H    6      0.54347             -0.54347             -0.29878         *
 * H    7      0.19441             -0.19441              0.52256         *
 * H    8     -0.54347              0.54347             -0.29878         *
 * C    1      0.00000              0.00000              0.74096         *
 * C    2      0.00000              0.00000             -0.74096         *
 * N    1     -0.36197             -0.36197             -0.08866         *
 * N    2      0.36197              0.36197             -0.08866         *
 * N    3     -0.36197              0.36197              0.08866         *
 * N    4      0.36197             -0.36197              0.08866         *
 * O    1      0.00000              0.00000             -0.07971         *
 * O    2      0.00000              0.00000              0.07971         *
 *                                                                       *
 *************************************************************************
 
 ***************** Stress Tensor *****************
 *                                               *
 *          Cartesian components (GPa)           *
 * --------------------------------------------- *
 *             x             y             z     *
 *                                               *
 *  x      0.085329      0.000000      0.000000  *
 *  y      0.000000      0.085329      0.000000  *
 *  z      0.000000      0.000000      2.040741  *
 *                                               *
 *  Pressure:   -0.7371                          *
 *                                               *
 *************************************************
  
 +------------+-------------+-------------+-----------------+ <-- min BFGS
 |    Step    |   lambda    |   F.delta   |    enthalpy     | <-- min BFGS
 +------------+-------------+-------------+-----------------+ <-- min BFGS
 |  previous  |    0.000000 |    0.009307 |    -2408.329033 | <-- min BFGS
 | trial step |    1.000000 |    0.002338 |    -2408.489005 | <-- min BFGS
 +------------+-------------+-------------+-----------------+ <-- min BFGS
  
 BFGS: finished iteration   1  with enthalpy= -2.40848900E+003 eV
  
 +-----------+-----------------+-----------------+------------+-----+ <-- BFGS
 | Parameter |      value      |    tolerance    |    units   | OK? | <-- BFGS
 +-----------+-----------------+-----------------+------------+-----+ <-- BFGS
 |  dE/ion   |   9.998233E-003 |   5.000000E-006 |         eV | No  | <-- BFGS
 |  |F|max   |   8.246116E-001 |   1.000000E-002 |       eV/A | No  | <-- BFGS
 |  |dR|max  |   2.082662E-002 |   5.000000E-004 |          A | No  | <-- BFGS
 |   Smax    |   2.040741E+000 |   2.000000E-002 |        GPa | No  | <-- BFGS
 +-----------+-----------------+-----------------+------------+-----+ <-- BFGS
  

================================================================================
 Starting BFGS iteration    2 ...
================================================================================
  
 +------------+-------------+-------------+-----------------+ <-- min BFGS
 |    Step    |   lambda    |   F.delta   |    enthalpy     | <-- min BFGS
 +------------+-------------+-------------+-----------------+ <-- min BFGS
 |  previous  |    0.000000 |    0.005273 |    -2408.489005 | <-- min BFGS
 +------------+-------------+-------------+-----------------+ <-- min BFGS
  

--------------------------------------------------------------------------------
 BFGS: starting iteration   2 with trial guess (lambda=  1.000000)
--------------------------------------------------------------------------------
 
                           -------------------------------
                                      Unit Cell
                           -------------------------------
        Real Lattice(A)              Reciprocal Lattice(1/A)
   5.5680023   0.0000000   0.0000000        1.1284452   0.0000000   0.0000000
   0.0000000   5.5680023   0.0000000        0.0000000   1.1284452   0.0000000
   0.0000000   0.0000000   4.6700267        0.0000000   0.0000000   1.3454281
 
                       Lattice parameters(A)       Cell Angles
                    a =    5.568002          alpha =   90.000000
                    b =    5.568002          beta  =   90.000000
                    c =    4.670027          gamma =   90.000000
 
                Current cell volume =  144.783203 A**3
 
                           -------------------------------
                                     Cell Contents
                           -------------------------------
 
            xxxxxxxxxxxxxxxxxxxxxxxxxxxxxxxxxxxxxxxxxxxxxxxxxxxxxxxxxxxx
            x  Element    Atom        Fractional coordinates of atoms  x
            x            Number           u          v          w      x
            x----------------------------------------------------------x
            x   H          1          0.258542   0.758542   0.284542   x
            x   H          2          0.132710   0.632710  -0.038194   x
            x   H          3         -0.258542  -0.758542   0.284542   x
            x   H          4         -0.132710  -0.632710  -0.038194   x
            x   H          5          0.758542  -0.258542  -0.284542   x
            x   H          6          0.632710  -0.132710   0.038194   x
            x   H          7         -0.758542   0.258542  -0.284542   x
            x   H          8         -0.632710   0.132710   0.038194   x
            x   C          1          0.000000   0.500000   0.329127   x
            x   C          2          0.500000   0.000000  -0.329127   x
            x   N          1          0.145122   0.645122   0.178933   x
            x   N          2         -0.145122  -0.645122   0.178933   x
            x   N          3          0.645122  -0.145122  -0.178933   x
            x   N          4         -0.645122   0.145122  -0.178933   x
            x   O          1          0.000000   0.500000   0.600918   x
            x   O          2          0.500000   0.000000  -0.600918   x
            xxxxxxxxxxxxxxxxxxxxxxxxxxxxxxxxxxxxxxxxxxxxxxxxxxxxxxxxxxxx
 
------------------------------------------------------------------------ <-- SCF
SCF loop      Energy           Fermi           Energy gain       Timer   <-- SCF
                               energy          per atom          (sec)   <-- SCF
------------------------------------------------------------------------ <-- SCF
Initial  -2.28924680E+003 -3.30339205E+000                      1767.42  <-- SCF
      1  -2.41709483E+003 -3.42737656E+000   7.99050196E+000    1842.99  <-- SCF
      2  -2.41709617E+003 -3.42737742E+000   8.37282839E-005    1904.20  <-- SCF
      3  -2.40899638E+003 -9.38206945E-001  -5.06237108E-001    1984.75  <-- SCF
      4  -2.40861280E+003 -6.61797680E-001  -2.39735585E-002    2067.12  <-- SCF
      5  -2.40856091E+003 -4.32491391E-001  -3.24298020E-003    2151.73  <-- SCF
      6  -2.40857275E+003 -3.56375105E-001   7.40058010E-004    2241.21  <-- SCF
      7  -2.40857979E+003 -3.44254198E-001   4.39937037E-004    2298.41  <-- SCF
      8  -2.40858203E+003 -3.27181561E-001   1.40191610E-004    2346.56  <-- SCF
      9  -2.40858211E+003 -3.27947420E-001   4.74720206E-006    2380.03  <-- SCF
     10  -2.40858211E+003 -3.26996047E-001  -5.60649527E-008    2410.35  <-- SCF
     11  -2.40858211E+003 -3.26895564E-001   5.35600987E-008    2443.20  <-- SCF
------------------------------------------------------------------------ <-- SCF
Final energy =  -2408.582110060     eV (not corrected for finite basis set)
 
 
 ******************************** Forces *********************************
 *                                                                       *
 *                      Cartesian components (eV/A)                      *
 * --------------------------------------------------------------------- *
 *              x                    y                    z              *
 *                                                                       *
 * H    1      0.13952              0.13952             -0.16493         *
 * H    2      0.36435              0.36435             -0.26244         *
 * H    3     -0.13952             -0.13952             -0.16493         *
 * H    4     -0.36435             -0.36435             -0.26244         *
 * H    5      0.13952             -0.13952              0.16493         *
 * H    6      0.36435             -0.36435              0.26244         *
 * H    7     -0.13952              0.13952              0.16493         *
 * H    8     -0.36435              0.36435              0.26244         *
 * C    1      0.00000              0.00000              0.27209         *
 * C    2      0.00000              0.00000             -0.27209         *
 * N    1     -0.42605             -0.42605              0.24875         *
 * N    2      0.42605              0.42605              0.24875         *
 * N    3     -0.42605              0.42605             -0.24875         *
 * N    4      0.42605             -0.42605             -0.24875         *
 * O    1      0.00000              0.00000              0.08813         *
 * O    2      0.00000              0.00000             -0.08813         *
 *                                                                       *
 *************************************************************************
 
 ***************** Stress Tensor *****************
 *                                               *
 *          Cartesian components (GPa)           *
 * --------------------------------------------- *
 *             x             y             z     *
 *                                               *
 *  x     -1.433020      0.000000      0.000000  *
 *  y      0.000000     -1.433020      0.000000  *
 *  z      0.000000      0.000000     -1.902544  *
 *                                               *
 *  Pressure:    1.5895                          *
 *                                               *
 *************************************************
  
 +------------+-------------+-------------+-----------------+ <-- min BFGS
 |    Step    |   lambda    |   F.delta   |    enthalpy     | <-- min BFGS
 +------------+-------------+-------------+-----------------+ <-- min BFGS
 |  previous  |    0.000000 |    0.005273 |    -2408.489005 | <-- min BFGS
 | trial step |    1.000000 |    0.001546 |    -2408.582188 | <-- min BFGS
 +------------+-------------+-------------+-----------------+ <-- min BFGS
  
 BFGS: finished iteration   2  with enthalpy= -2.40858219E+003 eV
  
 +-----------+-----------------+-----------------+------------+-----+ <-- BFGS
 | Parameter |      value      |    tolerance    |    units   | OK? | <-- BFGS
 +-----------+-----------------+-----------------+------------+-----+ <-- BFGS
 |  dE/ion   |   5.823927E-003 |   5.000000E-006 |         eV | No  | <-- BFGS
 |  |F|max   |   6.518466E-001 |   1.000000E-002 |       eV/A | No  | <-- BFGS
 |  |dR|max  |   2.069545E-002 |   5.000000E-004 |          A | No  | <-- BFGS
 |   Smax    |   1.902544E+000 |   2.000000E-002 |        GPa | No  | <-- BFGS
 +-----------+-----------------+-----------------+------------+-----+ <-- BFGS
  

================================================================================
 Starting BFGS iteration    3 ...
================================================================================
  
 +------------+-------------+-------------+-----------------+ <-- min BFGS
 |    Step    |   lambda    |   F.delta   |    enthalpy     | <-- min BFGS
 +------------+-------------+-------------+-----------------+ <-- min BFGS
 |  previous  |    0.000000 |    0.003075 |    -2408.582188 | <-- min BFGS
 +------------+-------------+-------------+-----------------+ <-- min BFGS
  

--------------------------------------------------------------------------------
 BFGS: starting iteration   3 with trial guess (lambda=  1.000000)
--------------------------------------------------------------------------------
 
                           -------------------------------
                                      Unit Cell
                           -------------------------------
        Real Lattice(A)              Reciprocal Lattice(1/A)
   5.5728873   0.0000000   0.0000000        1.1274560   0.0000000   0.0000000
   0.0000000   5.5728873   0.0000000        0.0000000   1.1274560   0.0000000
   0.0000000   0.0000000   4.6726129        0.0000000   0.0000000   1.3446835
 
                       Lattice parameters(A)       Cell Angles
                    a =    5.572887          alpha =   90.000000
                    b =    5.572887          beta  =   90.000000
                    c =    4.672613          gamma =   90.000000
 
                Current cell volume =  145.117676 A**3
 
                           -------------------------------
                                     Cell Contents
                           -------------------------------
 
            xxxxxxxxxxxxxxxxxxxxxxxxxxxxxxxxxxxxxxxxxxxxxxxxxxxxxxxxxxxx
            x  Element    Atom        Fractional coordinates of atoms  x
            x            Number           u          v          w      x
            x----------------------------------------------------------x
            x   H          1          0.257839   0.757839   0.281663   x
            x   H          2          0.135238   0.635238  -0.037909   x
            x   H          3         -0.257839  -0.757839   0.281663   x
            x   H          4         -0.135238  -0.635238  -0.037909   x
            x   H          5          0.757839  -0.257839  -0.281663   x
            x   H          6          0.635238  -0.135238   0.037909   x
            x   H          7         -0.757839   0.257839  -0.281663   x
            x   H          8         -0.635238   0.135238   0.037909   x
            x   C          1          0.000000   0.500000   0.330634   x
            x   C          2          0.500000   0.000000  -0.330634   x
            x   N          1          0.143735   0.643735   0.179959   x
            x   N          2         -0.143735  -0.643735   0.179959   x
            x   N          3          0.643735  -0.143735  -0.179959   x
            x   N          4         -0.643735   0.143735  -0.179959   x
            x   O          1          0.000000   0.500000   0.602636   x
            x   O          2          0.500000   0.000000  -0.602636   x
            xxxxxxxxxxxxxxxxxxxxxxxxxxxxxxxxxxxxxxxxxxxxxxxxxxxxxxxxxxxx
 
------------------------------------------------------------------------ <-- SCF
SCF loop      Energy           Fermi           Energy gain       Timer   <-- SCF
                               energy          per atom          (sec)   <-- SCF
------------------------------------------------------------------------ <-- SCF
Initial  -2.29254962E+003 -3.33725610E+000                      2500.73  <-- SCF
      1  -2.41724211E+003 -3.47444052E+000   7.79328069E+000    2585.14  <-- SCF
      2  -2.41724345E+003 -3.47444149E+000   8.36723544E-005    2652.67  <-- SCF
      3  -2.40905755E+003 -9.71845034E-001  -5.11618609E-001    2747.92  <-- SCF
      4  -2.40866836E+003 -6.86043108E-001  -2.43246106E-002    2823.16  <-- SCF
      5  -2.40861429E+003 -4.59646910E-001  -3.37901136E-003    2898.21  <-- SCF
      6  -2.40862591E+003 -3.82211562E-001   7.25914815E-004    2969.70  <-- SCF
      7  -2.40863316E+003 -3.69475736E-001   4.53453715E-004    3030.71  <-- SCF
      8  -2.40863547E+003 -3.52391177E-001   1.44217670E-004    3084.84  <-- SCF
      9  -2.40863555E+003 -3.53124069E-001   5.01217990E-006    3122.31  <-- SCF
     10  -2.40863555E+003 -3.52164886E-001  -5.44932227E-008    3156.29  <-- SCF
     11  -2.40863555E+003 -3.52059964E-001   5.53201260E-008    3204.77  <-- SCF
------------------------------------------------------------------------ <-- SCF
Final energy =  -2408.635552055     eV (not corrected for finite basis set)
 
 
 ******************************** Forces *********************************
 *                                                                       *
 *                      Cartesian components (eV/A)                      *
 * --------------------------------------------------------------------- *
 *              x                    y                    z              *
 *                                                                       *
 * H    1      0.19142              0.19142              0.02692         *
 * H    2      0.18610              0.18610             -0.15477         *
 * H    3     -0.19142             -0.19142              0.02692         *
 * H    4     -0.18610             -0.18610             -0.15477         *
 * H    5      0.19142             -0.19142             -0.02692         *
 * H    6      0.18610             -0.18610              0.15477         *
 * H    7     -0.19142              0.19142             -0.02692         *
 * H    8     -0.18610              0.18610              0.15477         *
 * C    1      0.00000              0.00000              0.39256         *
 * C    2      0.00000              0.00000             -0.39256         *
 * N    1     -0.02604             -0.02604             -0.04821         *
 * N    2      0.02604              0.02604             -0.04821         *
 * N    3     -0.02604              0.02604              0.04821         *
 * N    4      0.02604             -0.02604              0.04821         *
 * O    1      0.00000              0.00000             -0.05014         *
 * O    2      0.00000              0.00000              0.05014         *
 *                                                                       *
 *************************************************************************
 
 ***************** Stress Tensor *****************
 *                                               *
 *          Cartesian components (GPa)           *
 * --------------------------------------------- *
 *             x             y             z     *
 *                                               *
 *  x     -2.556279      0.000000      0.000000  *
 *  y      0.000000     -2.556279      0.000000  *
 *  z      0.000000      0.000000     -1.544007  *
 *                                               *
 *  Pressure:    2.2189                          *
 *                                               *
 *************************************************
  
 +------------+-------------+-------------+-----------------+ <-- min BFGS
 |    Step    |   lambda    |   F.delta   |    enthalpy     | <-- min BFGS
 +------------+-------------+-------------+-----------------+ <-- min BFGS
 |  previous  |    0.000000 |    0.003075 |    -2408.582188 | <-- min BFGS
 | trial step |    1.000000 |    0.000844 |    -2408.635660 | <-- min BFGS
 +------------+-------------+-------------+-----------------+ <-- min BFGS
  
 BFGS: finished iteration   3  with enthalpy= -2.40863566E+003 eV
  
 +-----------+-----------------+-----------------+------------+-----+ <-- BFGS
 | Parameter |      value      |    tolerance    |    units   | OK? | <-- BFGS
 +-----------+-----------------+-----------------+------------+-----+ <-- BFGS
 |  dE/ion   |   3.342002E-003 |   5.000000E-006 |         eV | No  | <-- BFGS
 |  |F|max   |   3.925641E-001 |   1.000000E-002 |       eV/A | No  | <-- BFGS
 |  |dR|max  |   1.997023E-002 |   5.000000E-004 |          A | No  | <-- BFGS
 |   Smax    |   2.556279E+000 |   2.000000E-002 |        GPa | No  | <-- BFGS
 +-----------+-----------------+-----------------+------------+-----+ <-- BFGS
  

================================================================================
 Starting BFGS iteration    4 ...
================================================================================
  
 +------------+-------------+-------------+-----------------+ <-- min BFGS
 |    Step    |   lambda    |   F.delta   |    enthalpy     | <-- min BFGS
 +------------+-------------+-------------+-----------------+ <-- min BFGS
 |  previous  |    0.000000 |    0.001294 |    -2408.635660 | <-- min BFGS
 +------------+-------------+-------------+-----------------+ <-- min BFGS
  

--------------------------------------------------------------------------------
 BFGS: starting iteration   4 with trial guess (lambda=  1.000000)
--------------------------------------------------------------------------------
 
                           -------------------------------
                                      Unit Cell
                           -------------------------------
        Real Lattice(A)              Reciprocal Lattice(1/A)
   5.5867241   0.0000000   0.0000000        1.1246636   0.0000000   0.0000000
   0.0000000   5.5867241   0.0000000        0.0000000   1.1246636   0.0000000
   0.0000000   0.0000000   4.6787250        0.0000000   0.0000000   1.3429268
 
                       Lattice parameters(A)       Cell Angles
                    a =    5.586724          alpha =   90.000000
                    b =    5.586724          beta  =   90.000000
                    c =    4.678725          gamma =   90.000000
 
                Current cell volume =  146.029959 A**3
 
                           -------------------------------
                                     Cell Contents
                           -------------------------------
 
            xxxxxxxxxxxxxxxxxxxxxxxxxxxxxxxxxxxxxxxxxxxxxxxxxxxxxxxxxxxx
            x  Element    Atom        Fractional coordinates of atoms  x
            x            Number           u          v          w      x
            x----------------------------------------------------------x
            x   H          1          0.257883   0.757883   0.280209   x
            x   H          2          0.136999   0.636999  -0.038046   x
            x   H          3         -0.257883  -0.757883   0.280209   x
            x   H          4         -0.136999  -0.636999  -0.038046   x
            x   H          5          0.757883  -0.257883  -0.280209   x
            x   H          6          0.636999  -0.136999   0.038046   x
            x   H          7         -0.757883   0.257883  -0.280209   x
            x   H          8         -0.636999   0.136999   0.038046   x
            x   C          1          0.000000   0.500000   0.332612   x
            x   C          2          0.500000   0.000000  -0.332612   x
            x   N          1          0.143267   0.643267   0.180148   x
            x   N          2         -0.143267  -0.643267   0.180148   x
            x   N          3          0.643267  -0.143267  -0.180148   x
            x   N          4         -0.643267   0.143267  -0.180148   x
            x   O          1          0.000000   0.500000   0.603472   x
            x   O          2          0.500000   0.000000  -0.603472   x
            xxxxxxxxxxxxxxxxxxxxxxxxxxxxxxxxxxxxxxxxxxxxxxxxxxxxxxxxxxxx
 
------------------------------------------------------------------------ <-- SCF
SCF loop      Energy           Fermi           Energy gain       Timer   <-- SCF
                               energy          per atom          (sec)   <-- SCF
------------------------------------------------------------------------ <-- SCF
Initial  -2.29597737E+003 -3.34345814E+000                      3259.46  <-- SCF
      1  -2.41722727E+003 -3.48186741E+000   7.57811870E+000    3335.24  <-- SCF
      2  -2.41722833E+003 -3.48186838E+000   6.61367476E-005    3395.67  <-- SCF
      3  -2.40907739E+003 -9.79091033E-001  -5.09433373E-001    3476.28  <-- SCF
      4  -2.40869189E+003 -7.00177469E-001  -2.40939402E-002    3557.52  <-- SCF
      5  -2.40863763E+003 -4.72136164E-001  -3.39097759E-003    3641.38  <-- SCF
      6  -2.40864922E+003 -3.94710298E-001   7.24195317E-004    3730.57  <-- SCF
      7  -2.40865646E+003 -3.82100301E-001   4.52461034E-004    3787.84  <-- SCF
      8  -2.40865877E+003 -3.64868177E-001   1.44473056E-004    3837.02  <-- SCF
      9  -2.40865885E+003 -3.65684021E-001   5.17804421E-006    3870.86  <-- SCF
     10  -2.40865885E+003 -3.64669034E-001  -5.38127326E-008    3901.72  <-- SCF
     11  -2.40865885E+003 -3.64558083E-001   5.83603137E-008    3934.50  <-- SCF
------------------------------------------------------------------------ <-- SCF
Final energy =  -2408.658853576     eV (not corrected for finite basis set)
 
 
 ******************************** Forces *********************************
 *                                                                       *
 *                      Cartesian components (eV/A)                      *
 * --------------------------------------------------------------------- *
 *              x                    y                    z              *
 *                                                                       *
 * H    1      0.10282              0.10282              0.03869         *
 * H    2      0.07451              0.07451             -0.03692         *
 * H    3     -0.10282             -0.10282              0.03869         *
 * H    4     -0.07451             -0.07451             -0.03692         *
 * H    5      0.10282             -0.10282             -0.03869         *
 * H    6      0.07451             -0.07451              0.03692         *
 * H    7     -0.10282              0.10282             -0.03869         *
 * H    8     -0.07451              0.07451              0.03692         *
 * C    1      0.00000              0.00000             -0.09734         *
 * C    2      0.00000              0.00000              0.09734         *
 * N    1      0.09314              0.09314              0.05569         *
 * N    2     -0.09314             -0.09314              0.05569         *
 * N    3      0.09314             -0.09314             -0.05569         *
 * N    4     -0.09314              0.09314             -0.05569         *
 * O    1      0.00000              0.00000              0.00498         *
 * O    2      0.00000              0.00000             -0.00498         *
 *                                                                       *
 *************************************************************************
 
 ***************** Stress Tensor *****************
 *                                               *
 *          Cartesian components (GPa)           *
 * --------------------------------------------- *
 *             x             y             z     *
 *                                               *
 *  x     -2.012158      0.000000      0.000000  *
 *  y      0.000000     -2.012158      0.000000  *
 *  z      0.000000      0.000000     -0.623906  *
 *                                               *
 *  Pressure:    1.5494                          *
 *                                               *
 *************************************************
  
 +------------+-------------+-------------+-----------------+ <-- min BFGS
 |    Step    |   lambda    |   F.delta   |    enthalpy     | <-- min BFGS
 +------------+-------------+-------------+-----------------+ <-- min BFGS
 |  previous  |    0.000000 |    0.001294 |    -2408.635660 | <-- min BFGS
 | trial step |    1.000000 |    0.000420 |    -2408.658881 | <-- min BFGS
 +------------+-------------+-------------+-----------------+ <-- min BFGS
  
 BFGS: finished iteration   4  with enthalpy= -2.40865888E+003 eV
  
 +-----------+-----------------+-----------------+------------+-----+ <-- BFGS
 | Parameter |      value      |    tolerance    |    units   | OK? | <-- BFGS
 +-----------+-----------------+-----------------+------------+-----+ <-- BFGS
 |  dE/ion   |   1.451347E-003 |   5.000000E-006 |         eV | No  | <-- BFGS
 |  |F|max   |   1.504653E-001 |   1.000000E-002 |       eV/A | No  | <-- BFGS
 |  |dR|max  |   1.392704E-002 |   5.000000E-004 |          A | No  | <-- BFGS
 |   Smax    |   2.012158E+000 |   2.000000E-002 |        GPa | No  | <-- BFGS
 +-----------+-----------------+-----------------+------------+-----+ <-- BFGS
  

================================================================================
 Starting BFGS iteration    5 ...
================================================================================
 
Writing model to urea.check                                                                                                                                                                                                                                                      
  
 +------------+-------------+-------------+-----------------+ <-- min BFGS
 |    Step    |   lambda    |   F.delta   |    enthalpy     | <-- min BFGS
 +------------+-------------+-------------+-----------------+ <-- min BFGS
 |  previous  |    0.000000 |    0.000548 |    -2408.658881 | <-- min BFGS
 +------------+-------------+-------------+-----------------+ <-- min BFGS
  

--------------------------------------------------------------------------------
 BFGS: starting iteration   5 with trial guess (lambda=  1.000000)
--------------------------------------------------------------------------------
 
                           -------------------------------
                                      Unit Cell
                           -------------------------------
        Real Lattice(A)              Reciprocal Lattice(1/A)
   5.6020004   0.0000000   0.0000000        1.1215967   0.0000000   0.0000000
   0.0000000   5.6020004   0.0000000        0.0000000   1.1215967   0.0000000
   0.0000000   0.0000000   4.6829406        0.0000000   0.0000000   1.3417179
 
                       Lattice parameters(A)       Cell Angles
                    a =    5.602000          alpha =   90.000000
                    b =    5.602000          beta  =   90.000000
                    c =    4.682941          gamma =   90.000000
 
                Current cell volume =  146.961953 A**3
 
                           -------------------------------
                                     Cell Contents
                           -------------------------------
 
            xxxxxxxxxxxxxxxxxxxxxxxxxxxxxxxxxxxxxxxxxxxxxxxxxxxxxxxxxxxx
            x  Element    Atom        Fractional coordinates of atoms  x
            x            Number           u          v          w      x
            x----------------------------------------------------------x
            x   H          1          0.258155   0.758155   0.279601   x
            x   H          2          0.138066   0.638066  -0.038140   x
            x   H          3         -0.258155  -0.758155   0.279601   x
            x   H          4         -0.138066  -0.638066  -0.038140   x
            x   H          5          0.758155  -0.258155  -0.279601   x
            x   H          6          0.638066  -0.138066   0.038140   x
            x   H          7         -0.758155   0.258155  -0.279601   x
            x   H          8         -0.638066   0.138066   0.038140   x
            x   C          1          0.000000   0.500000   0.333077   x
            x   C          2          0.500000   0.000000  -0.333077   x
            x   N          1          0.143265   0.643265   0.180490   x
            x   N          2         -0.143265  -0.643265   0.180490   x
            x   N          3          0.643265  -0.143265  -0.180490   x
            x   N          4         -0.643265   0.143265  -0.180490   x
            x   O          1          0.000000   0.500000   0.603836   x
            x   O          2          0.500000   0.000000  -0.603836   x
            xxxxxxxxxxxxxxxxxxxxxxxxxxxxxxxxxxxxxxxxxxxxxxxxxxxxxxxxxxxx
 
------------------------------------------------------------------------ <-- SCF
SCF loop      Energy           Fermi           Energy gain       Timer   <-- SCF
                               energy          per atom          (sec)   <-- SCF
------------------------------------------------------------------------ <-- SCF
Initial  -2.29667550E+003 -3.35950708E+000                      3993.65  <-- SCF
      1  -2.41717166E+003 -3.49741758E+000   7.53101034E+000    4078.51  <-- SCF
      2  -2.41717264E+003 -3.49741858E+000   6.14210301E-005    4161.88  <-- SCF
      3  -2.40908242E+003 -1.00384024E+000  -5.05639297E-001    4238.89  <-- SCF
      4  -2.40870210E+003 -7.32106151E-001  -2.37699851E-002    4316.51  <-- SCF
      5  -2.40864810E+003 -5.04120463E-001  -3.37463643E-003    4391.21  <-- SCF
      6  -2.40865961E+003 -4.26226989E-001   7.19096763E-004    4456.98  <-- SCF
      7  -2.40866686E+003 -4.13678692E-001   4.53244384E-004    4514.56  <-- SCF
      8  -2.40866917E+003 -3.96414811E-001   1.44277483E-004    4565.76  <-- SCF
      9  -2.40866925E+003 -3.97252004E-001   5.22070941E-006    4600.34  <-- SCF
     10  -2.40866925E+003 -3.96220665E-001  -5.59143343E-008    4630.50  <-- SCF
     11  -2.40866925E+003 -3.96104838E-001   5.95435341E-008    4660.86  <-- SCF
------------------------------------------------------------------------ <-- SCF
Final energy =  -2408.669251058     eV (not corrected for finite basis set)
 
 
 ******************************** Forces *********************************
 *                                                                       *
 *                      Cartesian components (eV/A)                      *
 * --------------------------------------------------------------------- *
 *              x                    y                    z              *
 *                                                                       *
 * H    1      0.02199              0.02199              0.04433         *
 * H    2      0.02609              0.02609              0.08163         *
 * H    3     -0.02199             -0.02199              0.04433         *
 * H    4     -0.02609             -0.02609              0.08163         *
 * H    5      0.02199             -0.02199             -0.04433         *
 * H    6      0.02609             -0.02609             -0.08163         *
 * H    7     -0.02199              0.02199             -0.04433         *
 * H    8     -0.02609              0.02609             -0.08163         *
 * C    1      0.00000              0.00000             -0.19077         *
 * C    2      0.00000              0.00000              0.19077         *
 * N    1      0.09107              0.09107              0.02522         *
 * N    2     -0.09107             -0.09107              0.02522         *
 * N    3      0.09107             -0.09107             -0.02522         *
 * N    4     -0.09107              0.09107             -0.02522         *
 * O    1      0.00000              0.00000             -0.07761         *
 * O    2      0.00000              0.00000              0.07761         *
 *                                                                       *
 *************************************************************************
 
 ***************** Stress Tensor *****************
 *                                               *
 *          Cartesian components (GPa)           *
 * --------------------------------------------- *
 *             x             y             z     *
 *                                               *
 *  x     -1.249902      0.000000      0.000000  *
 *  y      0.000000     -1.249902      0.000000  *
 *  z      0.000000      0.000000      0.441324  *
 *                                               *
 *  Pressure:    0.6862                          *
 *                                               *
 *************************************************
  
 +------------+-------------+-------------+-----------------+ <-- min BFGS
 |    Step    |   lambda    |   F.delta   |    enthalpy     | <-- min BFGS
 +------------+-------------+-------------+-----------------+ <-- min BFGS
 |  previous  |    0.000000 |    0.000548 |    -2408.658881 | <-- min BFGS
 | trial step |    1.000000 |    0.000214 |    -2408.669259 | <-- min BFGS
 +------------+-------------+-------------+-----------------+ <-- min BFGS
  

--------------------------------------------------------------------------------
 BFGS: improving iteration   5 with line minimization (lambda=  1.638726)
--------------------------------------------------------------------------------
 
                           -------------------------------
                                      Unit Cell
                           -------------------------------
        Real Lattice(A)              Reciprocal Lattice(1/A)
   5.6117578   0.0000000   0.0000000        1.1196466   0.0000000   0.0000000
   0.0000000   5.6117578   0.0000000        0.0000000   1.1196466   0.0000000
   0.0000000   0.0000000   4.6856332        0.0000000   0.0000000   1.3409469
 
                       Lattice parameters(A)       Cell Angles
                    a =    5.611758          alpha =   90.000000
                    b =    5.611758          beta  =   90.000000
                    c =    4.685633          gamma =   90.000000
 
                Current cell volume =  147.559141 A**3
 
                           -------------------------------
                                     Cell Contents
                           -------------------------------
 
            xxxxxxxxxxxxxxxxxxxxxxxxxxxxxxxxxxxxxxxxxxxxxxxxxxxxxxxxxxxx
            x  Element    Atom        Fractional coordinates of atoms  x
            x            Number           u          v          w      x
            x----------------------------------------------------------x
            x   H          1          0.258330   0.758330   0.279213   x
            x   H          2          0.138748   0.638748  -0.038199   x
            x   H          3         -0.258330  -0.758330   0.279213   x
            x   H          4         -0.138748  -0.638748  -0.038199   x
            x   H          5          0.758330  -0.258330  -0.279213   x
            x   H          6          0.638748  -0.138748   0.038199   x
            x   H          7         -0.758330   0.258330  -0.279213   x
            x   H          8         -0.638748   0.138748   0.038199   x
            x   C          1          0.000000   0.500000   0.333374   x
            x   C          2          0.500000   0.000000  -0.333374   x
            x   N          1          0.143263   0.643263   0.180709   x
            x   N          2         -0.143263  -0.643263   0.180709   x
            x   N          3          0.643263  -0.143263  -0.180709   x
            x   N          4         -0.643263   0.143263  -0.180709   x
            x   O          1          0.000000   0.500000   0.604069   x
            x   O          2          0.500000   0.000000  -0.604069   x
            xxxxxxxxxxxxxxxxxxxxxxxxxxxxxxxxxxxxxxxxxxxxxxxxxxxxxxxxxxxx
 
------------------------------------------------------------------------ <-- SCF
SCF loop      Energy           Fermi           Energy gain       Timer   <-- SCF
                               energy          per atom          (sec)   <-- SCF
------------------------------------------------------------------------ <-- SCF
Initial  -2.29478686E+003 -3.37412765E+000                      4715.00  <-- SCF
      1  -2.41713158E+003 -3.50709534E+000   7.64654471E+000    4795.69  <-- SCF
      2  -2.41713252E+003 -3.50709633E+000   5.88200394E-005    4860.72  <-- SCF
      3  -2.40908072E+003 -1.01939681E+000  -5.03237305E-001    4945.34  <-- SCF
      4  -2.40870372E+003 -7.52281106E-001  -2.35628110E-002    5045.17  <-- SCF
      5  -2.40865004E+003 -5.24303811E-001  -3.35451475E-003    5121.46  <-- SCF
      6  -2.40866150E+003 -4.46134821E-001   7.15954274E-004    5188.13  <-- SCF
      7  -2.40866876E+003 -4.33644621E-001   4.53649195E-004    5244.95  <-- SCF
      8  -2.40867107E+003 -4.16351451E-001   1.44288810E-004    5299.06  <-- SCF
      9  -2.40867115E+003 -4.17215914E-001   5.24110389E-006    5334.97  <-- SCF
     10  -2.40867115E+003 -4.16164843E-001  -5.77906849E-008    5369.01  <-- SCF
     11  -2.40867115E+003 -4.16044208E-001   6.04814435E-008    5403.05  <-- SCF
------------------------------------------------------------------------ <-- SCF
Final energy =  -2408.671149298     eV (not corrected for finite basis set)
 
 
 ******************************** Forces *********************************
 *                                                                       *
 *                      Cartesian components (eV/A)                      *
 * --------------------------------------------------------------------- *
 *              x                    y                    z              *
 *                                                                       *
 * H    1     -0.02950             -0.02950              0.04848         *
 * H    2     -0.00510             -0.00510              0.15731         *
 * H    3      0.02950              0.02950              0.04848         *
 * H    4      0.00510              0.00510              0.15731         *
 * H    5     -0.02950              0.02950             -0.04848         *
 * H    6     -0.00510              0.00510             -0.15731         *
 * H    7      0.02950             -0.02950             -0.04848         *
 * H    8      0.00510             -0.00510             -0.15731         *
 * C    1      0.00000              0.00000             -0.25302         *
 * C    2      0.00000              0.00000              0.25302         *
 * N    1      0.09158              0.09158              0.00416         *
 * N    2     -0.09158             -0.09158              0.00416         *
 * N    3      0.09158             -0.09158             -0.00416         *
 * N    4     -0.09158              0.09158             -0.00416         *
 * O    1      0.00000              0.00000             -0.13033         *
 * O    2      0.00000              0.00000              0.13033         *
 *                                                                       *
 *************************************************************************
 
 ***************** Stress Tensor *****************
 *                                               *
 *          Cartesian components (GPa)           *
 * --------------------------------------------- *
 *             x             y             z     *
 *                                               *
 *  x     -0.771109      0.000000      0.000000  *
 *  y      0.000000     -0.771109      0.000000  *
 *  z      0.000000      0.000000      1.111896  *
 *                                               *
 *  Pressure:    0.1434                          *
 *                                               *
 *************************************************
  
 +------------+-------------+-------------+-----------------+ <-- min BFGS
 |    Step    |   lambda    |   F.delta   |    enthalpy     | <-- min BFGS
 +------------+-------------+-------------+-----------------+ <-- min BFGS
 |  previous  |    0.000000 |    0.000548 |    -2408.658881 | <-- min BFGS
 | trial step |    1.000000 |    0.000214 |    -2408.669259 | <-- min BFGS
 |  line step |    1.638726 |   -0.000001 |    -2408.671107 | <-- min BFGS
 +------------+-------------+-------------+-----------------+ <-- min BFGS
  
 BFGS: finished iteration   5  with enthalpy= -2.40867111E+003 eV
  
 +-----------+-----------------+-----------------+------------+-----+ <-- BFGS
 | Parameter |      value      |    tolerance    |    units   | OK? | <-- BFGS
 +-----------+-----------------+-----------------+------------+-----+ <-- BFGS
 |  dE/ion   |   7.641427E-004 |   5.000000E-006 |         eV | No  | <-- BFGS
 |  |F|max   |   2.530172E-001 |   1.000000E-002 |       eV/A | No  | <-- BFGS
 |  |dR|max  |   1.390070E-002 |   5.000000E-004 |          A | No  | <-- BFGS
 |   Smax    |   1.111896E+000 |   2.000000E-002 |        GPa | No  | <-- BFGS
 +-----------+-----------------+-----------------+------------+-----+ <-- BFGS
  

================================================================================
 Starting BFGS iteration    6 ...
================================================================================
  
 +------------+-------------+-------------+-----------------+ <-- min BFGS
 |    Step    |   lambda    |   F.delta   |    enthalpy     | <-- min BFGS
 +------------+-------------+-------------+-----------------+ <-- min BFGS
 |  previous  |    0.000000 |    0.000213 |    -2408.671107 | <-- min BFGS
 +------------+-------------+-------------+-----------------+ <-- min BFGS
  

--------------------------------------------------------------------------------
 BFGS: starting iteration   6 with trial guess (lambda=  1.000000)
--------------------------------------------------------------------------------
 
                           -------------------------------
                                      Unit Cell
                           -------------------------------
        Real Lattice(A)              Reciprocal Lattice(1/A)
   5.6177325   0.0000000   0.0000000        1.1184558   0.0000000   0.0000000
   0.0000000   5.6177325   0.0000000        0.0000000   1.1184558   0.0000000
   0.0000000   0.0000000   4.6834641        0.0000000   0.0000000   1.3415679
 
                       Lattice parameters(A)       Cell Angles
                    a =    5.617732          alpha =   90.000000
                    b =    5.617732          beta  =   90.000000
                    c =    4.683464          gamma =   90.000000
 
                Current cell volume =  147.805060 A**3
 
                           -------------------------------
                                     Cell Contents
                           -------------------------------
 
            xxxxxxxxxxxxxxxxxxxxxxxxxxxxxxxxxxxxxxxxxxxxxxxxxxxxxxxxxxxx
            x  Element    Atom        Fractional coordinates of atoms  x
            x            Number           u          v          w      x
            x----------------------------------------------------------x
            x   H          1          0.258442   0.758442   0.279486   x
            x   H          2          0.138788   0.638788  -0.037920   x
            x   H          3         -0.258442  -0.758442   0.279486   x
            x   H          4         -0.138788  -0.638788  -0.037920   x
            x   H          5          0.758442  -0.258442  -0.279486   x
            x   H          6          0.638788  -0.138788   0.037920   x
            x   H          7         -0.758442   0.258442  -0.279486   x
            x   H          8         -0.638788   0.138788   0.037920   x
            x   C          1          0.000000   0.500000   0.332752   x
            x   C          2          0.500000   0.000000  -0.332752   x
            x   N          1          0.143471   0.643471   0.180758   x
            x   N          2         -0.143471  -0.643471   0.180758   x
            x   N          3          0.643471  -0.143471  -0.180758   x
            x   N          4         -0.643471   0.143471  -0.180758   x
            x   O          1          0.000000   0.500000   0.603602   x
            x   O          2          0.500000   0.000000  -0.603602   x
            xxxxxxxxxxxxxxxxxxxxxxxxxxxxxxxxxxxxxxxxxxxxxxxxxxxxxxxxxxxx
 
------------------------------------------------------------------------ <-- SCF
SCF loop      Energy           Fermi           Energy gain       Timer   <-- SCF
                               energy          per atom          (sec)   <-- SCF
------------------------------------------------------------------------ <-- SCF
Initial  -2.29250197E+003 -3.39271872E+000                      5463.99  <-- SCF
      1  -2.41714090E+003 -3.52263312E+000   7.78993259E+000    5561.16  <-- SCF
      2  -2.41714184E+003 -3.52263407E+000   5.91507715E-005    5621.57  <-- SCF
      3  -2.40908610E+003 -1.03683798E+000  -5.03483995E-001    5697.77  <-- SCF
      4  -2.40870819E+003 -7.69767336E-001  -2.36193214E-002    5779.89  <-- SCF
      5  -2.40865458E+003 -5.41785635E-001  -3.35080480E-003    5862.77  <-- SCF
      6  -2.40866604E+003 -4.63528701E-001   7.16361743E-004    5938.48  <-- SCF
      7  -2.40867331E+003 -4.51035827E-001   4.54257926E-004    6019.28  <-- SCF
      8  -2.40867561E+003 -4.33740974E-001   1.44103999E-004    6070.27  <-- SCF
      9  -2.40867570E+003 -4.34608187E-001   5.24642319E-006    6104.57  <-- SCF
     10  -2.40867569E+003 -4.33562131E-001  -5.99711485E-008    6135.31  <-- SCF
     11  -2.40867570E+003 -4.33437610E-001   6.02606395E-008    6165.48  <-- SCF
------------------------------------------------------------------------ <-- SCF
Final energy =  -2408.675695545     eV (not corrected for finite basis set)
 
 
 ******************************** Forces *********************************
 *                                                                       *
 *                      Cartesian components (eV/A)                      *
 * --------------------------------------------------------------------- *
 *              x                    y                    z              *
 *                                                                       *
 * H    1     -0.04872             -0.04872              0.04525         *
 * H    2      0.00893              0.00893              0.08686         *
 * H    3      0.04872              0.04872              0.04525         *
 * H    4     -0.00893             -0.00893              0.08686         *
 * H    5     -0.04872              0.04872             -0.04525         *
 * H    6      0.00893             -0.00893             -0.08686         *
 * H    7      0.04872             -0.04872             -0.04525         *
 * H    8     -0.00893              0.00893             -0.08686         *
 * C    1      0.00000              0.00000             -0.16864         *
 * C    2      0.00000              0.00000              0.16864         *
 * N    1      0.03735              0.03735              0.02775         *
 * N    2     -0.03735             -0.03735              0.02775         *
 * N    3      0.03735             -0.03735             -0.02775         *
 * N    4     -0.03735              0.03735             -0.02775         *
 * O    1      0.00000              0.00000             -0.10776         *
 * O    2      0.00000              0.00000              0.10776         *
 *                                                                       *
 *************************************************************************
 
 ***************** Stress Tensor *****************
 *                                               *
 *          Cartesian components (GPa)           *
 * --------------------------------------------- *
 *             x             y             z     *
 *                                               *
 *  x     -0.462869      0.000000      0.000000  *
 *  y      0.000000     -0.462869      0.000000  *
 *  z      0.000000      0.000000      0.627786  *
 *                                               *
 *  Pressure:    0.0993                          *
 *                                               *
 *************************************************
  
 +------------+-------------+-------------+-----------------+ <-- min BFGS
 |    Step    |   lambda    |   F.delta   |    enthalpy     | <-- min BFGS
 +------------+-------------+-------------+-----------------+ <-- min BFGS
 |  previous  |    0.000000 |    0.000213 |    -2408.671107 | <-- min BFGS
 | trial step |    1.000000 |    0.000127 |    -2408.675713 | <-- min BFGS
 +------------+-------------+-------------+-----------------+ <-- min BFGS
  

--------------------------------------------------------------------------------
 BFGS: improving iteration   6 with line minimization (lambda=  2.477042)
--------------------------------------------------------------------------------
 
                           -------------------------------
                                      Unit Cell
                           -------------------------------
        Real Lattice(A)              Reciprocal Lattice(1/A)
   5.6265573   0.0000000   0.0000000        1.1167015   0.0000000   0.0000000
   0.0000000   5.6265573   0.0000000        0.0000000   1.1167015   0.0000000
   0.0000000   0.0000000   4.6802603        0.0000000   0.0000000   1.3424863
 
                       Lattice parameters(A)       Cell Angles
                    a =    5.626557          alpha =   90.000000
                    b =    5.626557          beta  =   90.000000
                    c =    4.680260          gamma =   90.000000
 
                Current cell volume =  148.168370 A**3
 
                           -------------------------------
                                     Cell Contents
                           -------------------------------
 
            xxxxxxxxxxxxxxxxxxxxxxxxxxxxxxxxxxxxxxxxxxxxxxxxxxxxxxxxxxxx
            x  Element    Atom        Fractional coordinates of atoms  x
            x            Number           u          v          w      x
            x----------------------------------------------------------x
            x   H          1          0.258608   0.758608   0.279888   x
            x   H          2          0.138846   0.638846  -0.037507   x
            x   H          3         -0.258608  -0.758608   0.279888   x
            x   H          4         -0.138846  -0.638846  -0.037507   x
            x   H          5          0.758608  -0.258608  -0.279888   x
            x   H          6          0.638846  -0.138846   0.037507   x
            x   H          7         -0.758608   0.258608  -0.279888   x
            x   H          8         -0.638846   0.138846   0.037507   x
            x   C          1          0.000000   0.500000   0.331833   x
            x   C          2          0.500000   0.000000  -0.331833   x
            x   N          1          0.143779   0.643779   0.180831   x
            x   N          2         -0.143779  -0.643779   0.180831   x
            x   N          3          0.643779  -0.143779  -0.180831   x
            x   N          4         -0.643779   0.143779  -0.180831   x
            x   O          1          0.000000   0.500000   0.602911   x
            x   O          2          0.500000   0.000000  -0.602911   x
            xxxxxxxxxxxxxxxxxxxxxxxxxxxxxxxxxxxxxxxxxxxxxxxxxxxxxxxxxxxx
 
------------------------------------------------------------------------ <-- SCF
SCF loop      Energy           Fermi           Energy gain       Timer   <-- SCF
                               energy          per atom          (sec)   <-- SCF
------------------------------------------------------------------------ <-- SCF
Initial  -2.29353954E+003 -3.41361456E+000                      6221.49  <-- SCF
      1  -2.41715086E+003 -3.54533689E+000   7.72570700E+000    6300.11  <-- SCF
      2  -2.41715183E+003 -3.54533782E+000   6.07669300E-005    6367.91  <-- SCF
[...]
            x   H          6          0.637302  -0.137302   0.036987   x
            x   H          7         -0.750593   0.250593  -0.285291   x
            x   H          8         -0.637302   0.137302   0.036987   x
            x   C          1          0.000000   0.500000   0.332830   x
            x   C          2          0.500000   0.000000  -0.332830   x
            x   N          1          0.140282   0.640282   0.182139   x
            x   N          2         -0.140282  -0.640282   0.182139   x
            x   N          3          0.640282  -0.140282  -0.182139   x
            x   N          4         -0.640282   0.140282  -0.182139   x
            x   O          1          0.000000   0.500000   0.604031   x
            x   O          2          0.500000   0.000000  -0.604031   x
            xxxxxxxxxxxxxxxxxxxxxxxxxxxxxxxxxxxxxxxxxxxxxxxxxxxxxxxxxxxx
 
------------------------------------------------------------------------ <-- SCF
SCF loop      Energy           Fermi           Energy gain       Timer   <-- SCF
                               energy          per atom          (sec)   <-- SCF
------------------------------------------------------------------------ <-- SCF
Initial  -2.28811152E+003 -3.76672826E+000                     26896.15  <-- SCF
      1  -2.41735388E+003 -3.89382173E+000   8.07764806E+000   26978.21  <-- SCF
      2  -2.41735477E+003 -3.89382288E+000   5.55609630E-005   27047.29  <-- SCF
      3  -2.40913755E+003 -1.39041175E+000  -5.13576491E-001   27135.09  <-- SCF
      4  -2.40873965E+003 -1.10651536E+000  -2.48685270E-002   27226.95  <-- SCF
      5  -2.40867788E+003 -8.71706809E-001  -3.86087382E-003   27331.88  <-- SCF
      6  -2.40868820E+003 -7.87605463E-001   6.44938424E-004   27404.87  <-- SCF
      7  -2.40869559E+003 -7.73059862E-001   4.61870640E-004   27466.83  <-- SCF
      8  -2.40869781E+003 -7.54393379E-001   1.39126286E-004   27522.87  <-- SCF
      9  -2.40869791E+003 -7.55840447E-001   6.27878355E-006   27563.72  <-- SCF
     10  -2.40869791E+003 -7.54467779E-001  -1.34548955E-007   27599.99  <-- SCF
     11  -2.40869791E+003 -7.54256213E-001   7.73068241E-008   27636.95  <-- SCF
------------------------------------------------------------------------ <-- SCF
Final energy =  -2408.697913892     eV (not corrected for finite basis set)
 
 
 ******************************** Forces *********************************
 *                                                                       *
 *                      Cartesian components (eV/A)                      *
 * --------------------------------------------------------------------- *
 *              x                    y                    z              *
 *                                                                       *
 * H    1     -0.00023             -0.00023              0.00593         *
 * H    2      0.00134              0.00134              0.00655         *
 * H    3      0.00023              0.00023              0.00593         *
 * H    4     -0.00134             -0.00134              0.00655         *
 * H    5     -0.00023              0.00023             -0.00593         *
 * H    6      0.00134             -0.00134             -0.00655         *
 * H    7      0.00023             -0.00023             -0.00593         *
 * H    8     -0.00134              0.00134             -0.00655         *
 * C    1      0.00000              0.00000              0.00444         *
 * C    2      0.00000              0.00000             -0.00444         *
 * N    1     -0.00082             -0.00082              0.00258         *
 * N    2      0.00082              0.00082              0.00258         *
 * N    3     -0.00082              0.00082             -0.00258         *
 * N    4      0.00082             -0.00082             -0.00258         *
 * O    1      0.00000              0.00000             -0.00149         *
 * O    2      0.00000              0.00000              0.00149         *
 *                                                                       *
 *************************************************************************
 
 ***************** Stress Tensor *****************
 *                                               *
 *          Cartesian components (GPa)           *
 * --------------------------------------------- *
 *             x             y             z     *
 *                                               *
 *  x      0.007525      0.000000      0.000000  *
 *  y      0.000000      0.007525      0.000000  *
 *  z      0.000000      0.000000     -0.000196  *
 *                                               *
 *  Pressure:   -0.0050                          *
 *                                               *
 *************************************************
  
 +------------+-------------+-------------+-----------------+ <-- min BFGS
 |    Step    |   lambda    |   F.delta   |    enthalpy     | <-- min BFGS
 +------------+-------------+-------------+-----------------+ <-- min BFGS
 |  previous  |    0.000000 |    0.000006 |    -2408.697669 | <-- min BFGS
 | trial step |    1.000000 |    0.000000 |    -2408.697768 | <-- min BFGS
 +------------+-------------+-------------+-----------------+ <-- min BFGS
  
 BFGS: finished iteration  22  with enthalpy= -2.40869777E+003 eV
  
 +-----------+-----------------+-----------------+------------+-----+ <-- BFGS
 | Parameter |      value      |    tolerance    |    units   | OK? | <-- BFGS
 +-----------+-----------------+-----------------+------------+-----+ <-- BFGS
 |  dE/ion   |   6.190599E-006 |   5.000000E-006 |         eV | No  | <-- BFGS
 |  |F|max   |   6.821664E-003 |   1.000000E-002 |       eV/A | Yes | <-- BFGS
 |  |dR|max  |   1.454672E-003 |   5.000000E-004 |          A | No  | <-- BFGS
 |   Smax    |   7.525037E-003 |   2.000000E-002 |        GPa | Yes | <-- BFGS
 +-----------+-----------------+-----------------+------------+-----+ <-- BFGS
  

================================================================================
 Starting BFGS iteration   23 ...
================================================================================
  
 +------------+-------------+-------------+-----------------+ <-- min BFGS
 |    Step    |   lambda    |   F.delta   |    enthalpy     | <-- min BFGS
 +------------+-------------+-------------+-----------------+ <-- min BFGS
 |  previous  |    0.000000 |    0.000000 |    -2408.697768 | <-- min BFGS
 +------------+-------------+-------------+-----------------+ <-- min BFGS
  

--------------------------------------------------------------------------------
 BFGS: starting iteration  23 with trial guess (lambda=  1.000000)
--------------------------------------------------------------------------------
 
                           -------------------------------
                                      Unit Cell
                           -------------------------------
        Real Lattice(A)              Reciprocal Lattice(1/A)
   5.7715629   0.0000000   0.0000000        1.0886454   0.0000000   0.0000000
   0.0000000   5.7715629   0.0000000        0.0000000   1.0886454   0.0000000
   0.0000000   0.0000000   4.6689250        0.0000000   0.0000000   1.3457456
 
                       Lattice parameters(A)       Cell Angles
                    a =    5.771563          alpha =   90.000000
                    b =    5.771563          beta  =   90.000000
                    c =    4.668925          gamma =   90.000000
 
                Current cell volume =  155.526270 A**3
 
                           -------------------------------
                                     Cell Contents
                           -------------------------------
 
            xxxxxxxxxxxxxxxxxxxxxxxxxxxxxxxxxxxxxxxxxxxxxxxxxxxxxxxxxxxx
            x  Element    Atom        Fractional coordinates of atoms  x
            x            Number           u          v          w      x
            x----------------------------------------------------------x
            x   H          1          0.250592   0.750592   0.285308   x
            x   H          2          0.137305   0.637305  -0.036969   x
            x   H          3         -0.250592  -0.750592   0.285308   x
            x   H          4         -0.137305  -0.637305  -0.036969   x
            x   H          5          0.750592  -0.250592  -0.285308   x
            x   H          6          0.637305  -0.137305   0.036969   x
            x   H          7         -0.750592   0.250592  -0.285308   x
            x   H          8         -0.637305   0.137305   0.036969   x
            x   C          1          0.000000   0.500000   0.332843   x
            x   C          2          0.500000   0.000000  -0.332843   x
            x   N          1          0.140281   0.640281   0.182146   x
            x   N          2         -0.140281  -0.640281   0.182146   x
            x   N          3          0.640281  -0.140281  -0.182146   x
            x   N          4         -0.640281   0.140281  -0.182146   x
            x   O          1          0.000000   0.500000   0.604027   x
            x   O          2          0.500000   0.000000  -0.604027   x
            xxxxxxxxxxxxxxxxxxxxxxxxxxxxxxxxxxxxxxxxxxxxxxxxxxxxxxxxxxxx
 
------------------------------------------------------------------------ <-- SCF
SCF loop      Energy           Fermi           Energy gain       Timer   <-- SCF
                               energy          per atom          (sec)   <-- SCF
------------------------------------------------------------------------ <-- SCF
Initial  -2.28969433E+003 -3.76441836E+000                     27708.99  <-- SCF
      1  -2.41735467E+003 -3.89386020E+000   7.97877123E+000   27812.97  <-- SCF
      2  -2.41735558E+003 -3.89386135E+000   5.63222867E-005   27878.78  <-- SCF
      3  -2.40913760E+003 -1.39034153E+000  -5.13623612E-001   27960.71  <-- SCF
      4  -2.40873966E+003 -1.10638783E+000  -2.48709357E-002   28048.82  <-- SCF
      5  -2.40867789E+003 -8.71560283E-001  -3.86108028E-003   28139.13  <-- SCF
      6  -2.40868821E+003 -7.87470688E-001   6.45112576E-004   28219.84  <-- SCF
      7  -2.40869560E+003 -7.72926272E-001   4.61828696E-004   28302.91  <-- SCF
      8  -2.40869782E+003 -7.54260506E-001   1.39116729E-004   28358.82  <-- SCF
      9  -2.40869792E+003 -7.55707996E-001   6.27842380E-006   28397.67  <-- SCF
     10  -2.40869792E+003 -7.54335258E-001  -1.34523095E-007   28431.34  <-- SCF
     11  -2.40869792E+003 -7.54123621E-001   7.73049148E-008   28464.61  <-- SCF
------------------------------------------------------------------------ <-- SCF
Final energy =  -2408.697921571     eV (not corrected for finite basis set)
 
 
 ******************************** Forces *********************************
 *                                                                       *
 *                      Cartesian components (eV/A)                      *
 * --------------------------------------------------------------------- *
 *              x                    y                    z              *
 *                                                                       *
 * H    1     -0.00093             -0.00093              0.00513         *
 * H    2      0.00123              0.00123              0.00447         *
 * H    3      0.00093              0.00093              0.00513         *
 * H    4     -0.00123             -0.00123              0.00447         *
 * H    5     -0.00093              0.00093             -0.00513         *
 * H    6      0.00123             -0.00123             -0.00447         *
 * H    7      0.00093             -0.00093             -0.00513         *
 * H    8     -0.00123              0.00123             -0.00447         *
 * C    1      0.00000              0.00000              0.00038         *
 * C    2      0.00000              0.00000             -0.00038         *
 * N    1      0.00071              0.00071              0.00533         *
 * N    2     -0.00071             -0.00071              0.00533         *
 * N    3      0.00071             -0.00071             -0.00533         *
 * N    4     -0.00071              0.00071             -0.00533         *
 * O    1      0.00000              0.00000              0.00265         *
 * O    2      0.00000              0.00000             -0.00265         *
 *                                                                       *
 *************************************************************************
 
 ***************** Stress Tensor *****************
 *                                               *
 *          Cartesian components (GPa)           *
 * --------------------------------------------- *
 *             x             y             z     *
 *                                               *
 *  x      0.006772      0.000000      0.000000  *
 *  y      0.000000      0.006772      0.000000  *
 *  z      0.000000      0.000000     -0.019631  *
 *                                               *
 *  Pressure:    0.0020                          *
 *                                               *
 *************************************************
  
 +------------+-------------+-------------+-----------------+ <-- min BFGS
 |    Step    |   lambda    |   F.delta   |    enthalpy     | <-- min BFGS
 +------------+-------------+-------------+-----------------+ <-- min BFGS
 |  previous  |    0.000000 |    0.000000 |    -2408.697768 | <-- min BFGS
 | trial step |    1.000000 |    0.000000 |    -2408.697773 | <-- min BFGS
 +------------+-------------+-------------+-----------------+ <-- min BFGS
  
 BFGS: finished iteration  23  with enthalpy= -2.40869777E+003 eV
  
 +-----------+-----------------+-----------------+------------+-----+ <-- BFGS
 | Parameter |      value      |    tolerance    |    units   | OK? | <-- BFGS
 +-----------+-----------------+-----------------+------------+-----+ <-- BFGS
 |  dE/ion   |   2.951149E-007 |   5.000000E-006 |         eV | Yes | <-- BFGS
 |  |F|max   |   5.425149E-003 |   1.000000E-002 |       eV/A | Yes | <-- BFGS
 |  |dR|max  |   8.883526E-005 |   5.000000E-004 |          A | Yes | <-- BFGS
 |   Smax    |   1.963066E-002 |   2.000000E-002 |        GPa | Yes | <-- BFGS
 +-----------+-----------------+-----------------+------------+-----+ <-- BFGS
  
 BFGS: Geometry optimization completed successfully.

================================================================================
 BFGS: Final Configuration:
================================================================================
 
                           -------------------------------
                                      Unit Cell
                           -------------------------------
        Real Lattice(A)              Reciprocal Lattice(1/A)
   5.7715629   0.0000000   0.0000000        1.0886454   0.0000000   0.0000000
   0.0000000   5.7715629   0.0000000        0.0000000   1.0886454   0.0000000
   0.0000000   0.0000000   4.6689250        0.0000000   0.0000000   1.3457456
 
                       Lattice parameters(A)       Cell Angles
                    a =    5.771563          alpha =   90.000000
                    b =    5.771563          beta  =   90.000000
                    c =    4.668925          gamma =   90.000000
 
                Current cell volume =  155.526270 A**3
 
                           -------------------------------
                                     Cell Contents
                           -------------------------------
 
            xxxxxxxxxxxxxxxxxxxxxxxxxxxxxxxxxxxxxxxxxxxxxxxxxxxxxxxxxxxx
            x  Element    Atom        Fractional coordinates of atoms  x
            x            Number           u          v          w      x
            x----------------------------------------------------------x
            x   H          1          0.250592   0.750592   0.285308   x
            x   H          2          0.137305   0.637305  -0.036969   x
            x   H          3         -0.250592  -0.750592   0.285308   x
            x   H          4         -0.137305  -0.637305  -0.036969   x
            x   H          5          0.750592  -0.250592  -0.285308   x
            x   H          6          0.637305  -0.137305   0.036969   x
            x   H          7         -0.750592   0.250592  -0.285308   x
            x   H          8         -0.637305   0.137305   0.036969   x
            x   C          1          0.000000   0.500000   0.332843   x
            x   C          2          0.500000   0.000000  -0.332843   x
            x   N          1          0.140281   0.640281   0.182146   x
            x   N          2         -0.140281  -0.640281   0.182146   x
            x   N          3          0.640281  -0.140281  -0.182146   x
            x   N          4         -0.640281   0.140281  -0.182146   x
            x   O          1          0.000000   0.500000   0.604027   x
            x   O          2          0.500000   0.000000  -0.604027   x
            xxxxxxxxxxxxxxxxxxxxxxxxxxxxxxxxxxxxxxxxxxxxxxxxxxxxxxxxxxxx
 
 BFGS: Final Enthalpy     = -2.40869777E+003 eV
 
 ************************** Symmetrised Forces ***************************
 *                                                                       *
 *                      Cartesian components (eV/A)                      *
 * --------------------------------------------------------------------- *
 *              x                    y                    z              *
 *                                                                       *
 * H    1     -0.00093             -0.00093              0.00513         *
 * H    2      0.00123              0.00123              0.00447         *
 * H    3      0.00093              0.00093              0.00513         *
 * H    4     -0.00123             -0.00123              0.00447         *
 * H    5     -0.00093              0.00093             -0.00513         *
 * H    6      0.00123             -0.00123             -0.00447         *
 * H    7      0.00093             -0.00093             -0.00513         *
 * H    8     -0.00123              0.00123             -0.00447         *
 * C    1      0.00000              0.00000              0.00038         *
 * C    2      0.00000              0.00000             -0.00038         *
 * N    1      0.00071              0.00071              0.00533         *
 * N    2     -0.00071             -0.00071              0.00533         *
 * N    3      0.00071             -0.00071             -0.00533         *
 * N    4     -0.00071              0.00071             -0.00533         *
 * O    1      0.00000              0.00000              0.00265         *
 * O    2      0.00000              0.00000             -0.00265         *
 *                                                                       *
 *************************************************************************
 
 *********** Symmetrised Stress Tensor ***********
 *                                               *
 *          Cartesian components (GPa)           *
 * --------------------------------------------- *
 *             x             y             z     *
 *                                               *
 *  x      0.006772      0.000000      0.000000  *
 *  y      0.000000      0.006772      0.000000  *
 *  z      0.000000      0.000000     -0.019631  *
 *                                               *
 *  Pressure:    0.0020                          *
 *                                               *
 *************************************************
 
Writing model to urea.check                                                                                                                                                                                                                                                      
Initialisation time =      3.48
Calculation time    =  28511.39
Finalisation time   =      0.90
Total time          =  28515.77
