<?xml version="1.0" encoding="ISO-8859-1"?>
<modeling>
 <generator>
  <i name="program" type="string">vasp </i>
  <i name="version" type="string">5.4.1  </i>
  <i name="subversion" type="string">24Jun15 (build May 24 2017 23:21:05) complex                          parallel </i>
  <i name="platform" type="string">IFC91_ompi </i>
  <i name="date" type="string">2018 02 21 </i>
  <i name="time" type="string">18:40:48 </i>
 </generator>
 <incar>
  <i type="string" name="SYSTEM"> Pt surf0</i>
  <i type="string" name="PREC">accurate</i>
  <i type="int" name="IALGO">    48</i>
  <i type="string" name="ALGO">FAST</i>
  <i type="int" name="NSIM">     4</i>
  <i type="int" name="IBRION">     2</i>
  <i name="EDIFF">      0.00010000</i>
  <i type="int" name="NSW">   150</i>
  <i name="ENCUT">    500.00000000</i>
  <i type="string" name="LREAL"> Auto</i>
  <i type="logical" name="LPLANE"> T  </i>
  <i type="int" name="ISMEAR">     2</i>
  <i name="SIGMA">      0.20000000</i>
  <v type="int" name="KPOINT_BSE">    -1     0     0     0</v>
 </incar>
 <kpoints>
  <generation param="Monkhorst-Pack">
   <v type="int" name="divisions">       9        9        1 </v>
   <v name="usershift">      0.00000000       0.00000000       0.00000000 </v>
   <v name="genvec1">      0.11111111       0.00000000       0.00000000 </v>
   <v name="genvec2">      0.00000000       0.11111111       0.00000000 </v>
   <v name="genvec3">      0.00000000       0.00000000       1.00000000 </v>
   <v name="shift">      0.00000000       0.00000000       0.00000000 </v>
  </generation>
  <varray name="kpointlist" >
   <v>       0.00000000       0.00000000       0.00000000 </v>
   <v>       0.11111111       0.00000000       0.00000000 </v>
   <v>       0.22222222       0.00000000       0.00000000 </v>
   <v>       0.33333333       0.00000000       0.00000000 </v>
   <v>       0.44444444       0.00000000       0.00000000 </v>
   <v>       0.11111111       0.11111111       0.00000000 </v>
   <v>       0.22222222       0.11111111       0.00000000 </v>
   <v>       0.33333333       0.11111111       0.00000000 </v>
   <v>       0.44444444       0.11111111       0.00000000 </v>
   <v>       0.22222222       0.22222222       0.00000000 </v>
   <v>       0.33333333       0.22222222       0.00000000 </v>
   <v>       0.44444444       0.22222222       0.00000000 </v>
   <v>       0.33333333       0.33333333       0.00000000 </v>
   <v>       0.44444444       0.33333333       0.00000000 </v>
   <v>       0.44444444       0.44444444       0.00000000 </v>
  </varray>
  <varray name="weights" >
   <v>       0.01234568 </v>
   <v>       0.04938272 </v>
   <v>       0.04938272 </v>
   <v>       0.04938272 </v>
   <v>       0.04938272 </v>
   <v>       0.04938272 </v>
   <v>       0.09876543 </v>
   <v>       0.09876543 </v>
   <v>       0.09876543 </v>
   <v>       0.04938272 </v>
   <v>       0.09876543 </v>
   <v>       0.09876543 </v>
   <v>       0.04938272 </v>
   <v>       0.09876543 </v>
   <v>       0.04938272 </v>
  </varray>
 </kpoints>
 <parameters>
  <separator name="general" >
   <i type="string" name="SYSTEM">Pt surf0</i>
   <i type="logical" name="LCOMPAT"> F  </i>
  </separator>
  <separator name="electronic" >
   <i type="string" name="PREC">accura</i>
   <i name="ENMAX">    500.00000000</i>
   <i name="ENAUG">    644.87300000</i>
   <i name="EDIFF">      0.00010000</i>
   <i type="int" name="IALGO">    68</i>
   <i type="int" name="IWAVPR">    11</i>
   <i type="int" name="NBANDS">    66</i>
   <i name="NELECT">    110.00000000</i>
   <i type="int" name="TURBO">     0</i>
   <i type="int" name="IRESTART">     0</i>
   <i type="int" name="NREBOOT">     0</i>
   <i type="int" name="NMIN">     0</i>
   <i name="EREF">      0.00000000</i>
   <separator name="electronic smearing" >
    <i type="int" name="ISMEAR">     2</i>
    <i name="SIGMA">      0.20000000</i>
    <i name="KSPACING">      0.50000000</i>
    <i type="logical" name="KGAMMA"> T  </i>
   </separator>
   <separator name="electronic projectors" >
    <i type="logical" name="LREAL"> T  </i>
    <v name="ROPT">     -0.00025000     -0.00025000     -0.00025000</v>
    <i type="int" name="LMAXPAW">  -100</i>
    <i type="int" name="LMAXMIX">     2</i>
    <i type="logical" name="NLSPLINE"> F  </i>
   </separator>
   <separator name="electronic startup" >
    <i type="int" name="ISTART">     0</i>
    <i type="int" name="ICHARG">     2</i>
    <i type="int" name="INIWAV">     1</i>
   </separator>
   <separator name="electronic spin" >
    <i type="int" name="ISPIN">     1</i>
    <i type="logical" name="LNONCOLLINEAR"> F  </i>
    <v name="MAGMOM">      1.00000000      1.00000000      1.00000000      1.00000000      1.00000000      1.00000000      1.00000000      1.00000000      1.00000000      1.00000000      1.00000000      1.00000000</v>
    <i name="NUPDOWN">     -1.00000000</i>
    <i type="logical" name="LSORBIT"> F  </i>
    <v name="SAXIS">      0.00000000      0.00000000      1.00000000</v>
    <i type="logical" name="LSPIRAL"> F  </i>
    <v name="QSPIRAL">      0.00000000      0.00000000      0.00000000</v>
    <i type="logical" name="LZEROZ"> F  </i>
   </separator>
   <separator name="electronic exchange-correlation" >
    <i type="logical" name="LASPH"> F  </i>
    <i type="logical" name="LMETAGGA"> F  </i>
   </separator>
   <separator name="electronic convergence" >
    <i type="int" name="NELM">    60</i>
    <i type="int" name="NELMDL">    -5</i>
    <i type="int" name="NELMIN">     2</i>
    <i name="ENINI">    500.00000000</i>
    <separator name="electronic convergence detail" >
     <i type="logical" name="LDIAG"> T  </i>
     <i type="logical" name="LSUBROT"> F  </i>
     <i name="WEIMIN">      0.00100000</i>
     <i name="EBREAK">      0.00000038</i>
     <i name="DEPER">      0.30000000</i>
     <i type="int" name="NRMM">     4</i>
     <i name="TIME">      0.40000000</i>
    </separator>
   </separator>
   <separator name="electronic mixer" >
    <i name="AMIX">      0.40000000</i>
    <i name="BMIX">      1.00000000</i>
    <i name="AMIN">      0.10000000</i>
    <i name="AMIX_MAG">      1.60000000</i>
    <i name="BMIX_MAG">      1.00000000</i>
    <separator name="electronic mixer details" >
     <i type="int" name="IMIX">     4</i>
     <i type="logical" name="MIXFIRST"> F  </i>
     <i type="int" name="MAXMIX">   -45</i>
     <i name="WC">    100.00000000</i>
     <i type="int" name="INIMIX">     1</i>
     <i type="int" name="MIXPRE">     1</i>
     <i type="int" name="MREMOVE">     5</i>
    </separator>
   </separator>
   <separator name="electronic dipolcorrection" >
    <i type="logical" name="LDIPOL"> F  </i>
    <i type="logical" name="LMONO"> F  </i>
    <i type="int" name="IDIPOL">     0</i>
    <i name="EPSILON">      1.00000000</i>
    <v name="DIPOL">   -100.00000000   -100.00000000   -100.00000000</v>
    <i name="EFIELD">      0.00000000</i>
   </separator>
  </separator>
  <separator name="grids" >
   <i type="int" name="NGX">    30</i>
   <i type="int" name="NGY">    30</i>
   <i type="int" name="NGZ">   120</i>
   <i type="int" name="NGXF">    60</i>
   <i type="int" name="NGYF">    60</i>
   <i type="int" name="NGZF">   240</i>
   <i type="logical" name="ADDGRID"> F  </i>
  </separator>
  <separator name="ionic" >
   <i type="int" name="NSW">   150</i>
   <i type="int" name="IBRION">     2</i>
   <i type="int" name="ISIF">     2</i>
   <i name="PSTRESS">      0.00000000</i>
   <i name="EDIFFG">      0.00100000</i>
   <i type="int" name="NFREE">     1</i>
   <i name="POTIM">      0.50000000</i>
   <i name="SMASS">     -3.00000000</i>
   <i name="SCALEE">      1.00000000</i>
  </separator>
  <separator name="ionic md" >
   <i name="TEBEG">      0.00010000</i>
   <i name="TEEND">      0.00010000</i>
   <i type="int" name="NBLOCK">     1</i>
   <i type="int" name="KBLOCK">   150</i>
   <i type="int" name="NPACO">   256</i>
   <i name="APACO">     16.00000000</i>
  </separator>
  <separator name="symmetry" >
   <i type="int" name="ISYM">     2</i>
   <i name="SYMPREC">      0.00001000</i>
  </separator>
  <separator name="dos" >
   <i type="logical" name="LORBIT"> F  </i>
   <v name="RWIGS">     -1.00000000     -1.00000000     -1.00000000</v>
   <i type="int" name="NEDOS">   301</i>
   <i name="EMIN">     10.00000000</i>
   <i name="EMAX">    -10.00000000</i>
   <i name="EFERMI">      0.00000000</i>
  </separator>
  <separator name="writing" >
   <i type="int" name="NWRITE">     2</i>
   <i type="logical" name="LWAVE"> T  </i>
   <i type="logical" name="LCHARG"> T  </i>
   <i type="logical" name="LPARD"> F  </i>
   <i type="logical" name="LVTOT"> F  </i>
   <i type="logical" name="LVHAR"> F  </i>
   <i type="logical" name="LELF"> F  </i>
   <i type="logical" name="LOPTICS"> F  </i>
   <v name="STM">      0.00000000      0.00000000      0.00000000      0.00000000      0.00000000      0.00000000      0.00000000</v>
  </separator>
  <separator name="performance" >
   <i type="int" name="NPAR">     1</i>
   <i type="int" name="NSIM">     4</i>
   <i type="int" name="NBLK">    -1</i>
   <i type="logical" name="LPLANE"> T  </i>
   <i type="logical" name="LSCALAPACK"> T  </i>
   <i type="logical" name="LSCAAWARE"> F  </i>
   <i type="logical" name="LSCALU"> F  </i>
   <i type="logical" name="LASYNC"> F  </i>
   <i type="logical" name="LORBITALREAL"> F  </i>
  </separator>
  <separator name="miscellaneous" >
   <i type="int" name="IDIOT">     3</i>
   <i type="logical" name="LMUSIC"> F  </i>
   <v name="POMASS">    195.08000000     12.01100000     16.00000000</v>
   <v name="DARWINR">      0.00000000      0.00000000      0.00000000</v>
   <v name="DARWINV">      1.00000000      1.00000000      1.00000000</v>
   <i type="logical" name="LCORR"> T  </i>
  </separator>
  <i type="logical" name="GGA_COMPAT"> T  </i>
  <i type="logical" name="LBERRY"> F  </i>
  <i type="int" name="ICORELEVEL">     0</i>
  <i type="logical" name="LDAU"> F  </i>
  <i type="int" name="I_CONSTRAINED_M">     0</i>
  <separator name="electronic exchange-correlation" >
   <i type="string" name="GGA">--</i>
   <i type="int" name="VOSKOWN">     0</i>
   <i type="logical" name="LHFCALC"> F  </i>
   <i type="string" name="PRECFOCK"></i>
   <i type="logical" name="LSYMGRAD"> F  </i>
   <i type="logical" name="LHFONE"> F  </i>
   <i type="logical" name="LRHFCALC"> F  </i>
   <i type="logical" name="LTHOMAS"> F  </i>
   <i type="logical" name="LMODELHF"> F  </i>
   <i name="ENCUT4O">     -1.00000000</i>
   <i type="int" name="EXXOEP">     0</i>
   <i type="int" name="FOURORBIT">     0</i>
   <i name="AEXX">      0.00000000</i>
   <i name="HFALPHA">      0.00000000</i>
   <i name="MCALPHA">      0.00000000</i>
   <i name="ALDAX">      1.00000000</i>
   <i name="AGGAX">      1.00000000</i>
   <i name="ALDAC">      1.00000000</i>
   <i name="AGGAC">      1.00000000</i>
   <i type="int" name="NKREDX">     1</i>
   <i type="int" name="NKREDY">     1</i>
   <i type="int" name="NKREDZ">     1</i>
   <i type="logical" name="SHIFTRED"> F  </i>
   <i type="logical" name="ODDONLY"> F  </i>
   <i type="logical" name="EVENONLY"> F  </i>
   <i type="int" name="LMAXFOCK">     0</i>
   <i type="int" name="NMAXFOCKAE">     0</i>
   <i type="logical" name="LFOCKAEDFT"> F  </i>
   <i name="HFSCREEN">      0.00000000</i>
   <i name="HFSCREENC">      0.00000000</i>
   <i type="int" name="NBANDSGWLOW">     0</i>
  </separator>
  <separator name="vdW DFT" >
   <i type="logical" name="LUSE_VDW"> F  </i>
   <i name="Zab_VDW">     -0.84910000</i>
   <i name="PARAM1">      0.12340000</i>
   <i name="PARAM2">      1.00000000</i>
   <i name="PARAM3">      0.00000000</i>
  </separator>
  <separator name="model GW" >
   <i type="int" name="MODEL_GW">     0</i>
   <i name="MODEL_EPS0">     12.70041936</i>
   <i name="MODEL_ALPHA">      1.00000000</i>
  </separator>
  <separator name="linear response parameters" >
   <i type="logical" name="LEPSILON"> F  </i>
   <i type="logical" name="LRPA"> F  </i>
   <i type="logical" name="LNABLA"> F  </i>
   <i type="logical" name="LVEL"> F  </i>
   <i type="int" name="KINTER">     0</i>
   <i name="CSHIFT">      0.10000000</i>
   <i name="OMEGAMAX">     -1.00000000</i>
   <i name="DEG_THRESHOLD">      0.00200000</i>
  </separator>
  <separator name="orbital magnetization" >
   <i type="logical" name="NUCIND"> F  </i>
   <v name="MAGPOS">      0.00000000      0.00000000      0.00000000</v>
   <i type="logical" name="LNICSALL"> T  </i>
   <i type="logical" name="ORBITALMAG"> F  </i>
   <i type="logical" name="LMAGBLOCH"> F  </i>
   <i type="logical" name="LCHIMAG"> F  </i>
   <i type="logical" name="LGAUGE"> T  </i>
   <i type="int" name="MAGATOM">     0</i>
   <v name="MAGDIPOL">      0.00000000      0.00000000      0.00000000</v>
   <v name="AVECCONST">      0.00000000      0.00000000      0.00000000</v>
  </separator>
  <separator name="response functions" >
   <i type="logical" name="LADDER"> F  </i>
   <i type="logical" name="LFXC"> F  </i>
   <i type="logical" name="LHARTREE"> T  </i>
   <i type="int" name="IBSE">     0</i>
   <v type="int" name="KPOINT">    -1     0     0     0</v>
   <i type="logical" name="LTCTE"> F  </i>
   <i type="logical" name="LTETE"> F  </i>
   <i type="logical" name="LTRIPLET"> F  </i>
   <i type="logical" name="LFXCEPS"> F  </i>
   <i type="logical" name="LFXHEG"> F  </i>
   <i type="int" name="NATURALO">     0</i>
   <i type="logical" name="L2ORDER"> F  </i>
   <i type="logical" name="LUSEW"> F  </i>
   <i name="ENCUTGW">     -2.00000000</i>
   <i name="ENCUTGWSOFT">     -2.00000000</i>
   <i name="ENCUTLF">     -1.00000000</i>
   <i type="int" name="LMAXMP2">    -1</i>
   <i name="SCISSOR">      0.00000000</i>
   <i type="int" name="NOMEGA">     0</i>
   <i type="int" name="NOMEGAR">     0</i>
   <i type="int" name="NBANDSGW">    -1</i>
   <i type="int" name="NBANDSO">    -1</i>
   <i type="int" name="NBANDSV">    -1</i>
   <i type="int" name="NELM">     1</i>
   <i type="int" name="NELMHF">     1</i>
   <i type="int" name="DIM">     3</i>
   <i type="int" name="ANTIRES">     0</i>
   <i name="OMEGAMAX">    -30.00000000</i>
   <i name="OMEGAMIN">    -30.00000000</i>
   <i name="OMEGATL">   -200.00000000</i>
   <i type="int" name="OMEGAGRID">     0</i>
   <i name="CSHIFT">     -0.10000000</i>
   <i type="logical" name="SELFENERGY"> F  </i>
   <i type="logical" name="LSPECTRAL"> F  </i>
   <i type="logical" name="LSPECTRALGW"> F  </i>
   <i type="logical" name="LSINGLES"> F  </i>
   <i type="logical" name="LFERMIGW"> F  </i>
   <i type="logical" name="ODDONLYGW"> F  </i>
   <i type="logical" name="EVENONLYGW"> F  </i>
   <i type="int" name="NKREDLFX">     1</i>
   <i type="int" name="NKREDLFY">     1</i>
   <i type="int" name="NKREDLFZ">     1</i>
   <i type="int" name="MAXMEM">  1800</i>
   <i type="int" name="TELESCOPE">     0</i>
   <i type="int" name="TAUPAR">     1</i>
   <i type="int" name="OMEGAPAR">    -1</i>
   <i name="LAMBDA">      1.00000000</i>
  </separator>
  <separator name="External order field" >
   <i name="OFIELD_KAPPA">      0.00000000</i>
   <v name="OFIELD_K">      0.00000000      0.00000000      0.00000000</v>
   <i name="OFIELD_Q6_NEAR">      0.00000000</i>
   <i name="OFIELD_Q6_FAR">      0.00000000</i>
   <i name="OFIELD_A">      0.00000000</i>
  </separator>
 </parameters>
 <atominfo>
  <atoms>      12 </atoms>
  <types>       3 </types>
  <array name="atoms" >
   <dimension dim="1">ion</dimension>
   <field type="string">element</field>
   <field type="int">atomtype</field>
   <set>
    <rc><c>Pt</c><c>   1</c></rc>
    <rc><c>Pt</c><c>   1</c></rc>
    <rc><c>Pt</c><c>   1</c></rc>
    <rc><c>Pt</c><c>   1</c></rc>
    <rc><c>Pt</c><c>   1</c></rc>
    <rc><c>Pt</c><c>   1</c></rc>
    <rc><c>Pt</c><c>   1</c></rc>
    <rc><c>Pt</c><c>   1</c></rc>
    <rc><c>Pt</c><c>   1</c></rc>
    <rc><c>Pt</c><c>   1</c></rc>
    <rc><c>C </c><c>   2</c></rc>
    <rc><c>O </c><c>   3</c></rc>
   </set>
  </array>
  <array name="atomtypes" >
   <dimension dim="1">type</dimension>
   <field type="int">atomspertype</field>
   <field type="string">element</field>
   <field>mass</field>
   <field>valence</field>
   <field type="string">pseudopotential</field>
   <set>
    <rc><c>  10</c><c>Pt</c><c>    195.08000000</c><c>     10.00000000</c><c> PAW_PBE Pt 05Jan2001                   </c></rc>
    <rc><c>   1</c><c>C </c><c>     12.01100000</c><c>      4.00000000</c><c> PAW_PBE C 08Apr2002                    </c></rc>
    <rc><c>   1</c><c>O </c><c>     16.00000000</c><c>      6.00000000</c><c> PAW_PBE O 08Apr2002                    </c></rc>
   </set>
  </array>
 </atominfo>
 <structure name="initialpos" >
  <crystal>
   <varray name="basis" >
    <v>       3.98960000       0.00000000       0.00000000 </v>
    <v>       0.00000000       3.98960000       0.00000000 </v>
    <v>       0.00000000       0.00000000      15.95840000 </v>
   </varray>
   <i name="volume">    254.00838718 </i>
   <varray name="rec_basis" >
    <v>       0.25065169       0.00000000       0.00000000 </v>
    <v>       0.00000000       0.25065169       0.00000000 </v>
    <v>       0.00000000       0.00000000       0.06266292 </v>
   </varray>
  </crystal>
  <varray name="positions" >
   <v>       0.00000000       0.00000000       0.00000000 </v>
   <v>       0.50000000       0.50000000       0.00000000 </v>
   <v>       0.00000000       0.50000000       0.12500000 </v>
   <v>       0.50000000       0.00000000       0.12500000 </v>
   <v>       0.00000000       0.00000000       0.25089497 </v>
   <v>       0.50000000       0.50000000       0.25089497 </v>
   <v>       0.00000000       0.50000000       0.37468655 </v>
   <v>       0.50000000       0.00000000       0.37468655 </v>
   <v>       0.00000000       0.00000000       0.49515742 </v>
   <v>       0.50000000       0.50000000       0.49515742 </v>
   <v>       0.00000000       0.00000000       0.62048326 </v>
   <v>       0.00000000       0.00000000       0.69254563 </v>
  </varray>
  <varray name="selective"  type="logical" >
   <v type="logical" >  F  F  F </v>
   <v type="logical" >  F  F  F </v>
   <v type="logical" >  F  F  F </v>
   <v type="logical" >  F  F  F </v>
   <v type="logical" >  T  T  T </v>
   <v type="logical" >  T  T  T </v>
   <v type="logical" >  T  T  T </v>
   <v type="logical" >  T  T  T </v>
   <v type="logical" >  T  T  T </v>
   <v type="logical" >  T  T  T </v>
   <v type="logical" >  T  T  T </v>
   <v type="logical" >  T  T  T </v>
  </varray>
  <nose>
   <v>      -3.00000000       0.00000000       0.00010000       0.00010000 </v>
  </nose>
 </structure>
 <calculation>
  <scstep>
   <time name="dav">    6.17    6.24</time>
   <time name="total">    6.51    6.58</time>
   <energy>
    <i name="alphaZ">    648.92586142 </i>
    <i name="ewald">   -275.58887584 </i>
    <i name="hartreedc">  -8638.46320203 </i>
    <i name="XCdc">     74.23965166 </i>
    <i name="pawpsdc">   6016.28477822 </i>
    <i name="pawaedc">  -5736.45121680 </i>
    <i name="eentropy">      0.00479519 </i>
    <i name="bandstr">   1327.86443933 </i>
    <i name="atom">   7870.63652434 </i>
    <i name="e_fr_energy">   1287.45275551 </i>
    <i name="e_wo_entrp">   1287.44796032 </i>
    <i name="e_0_energy">   1287.45155672 </i>
   </energy>
  </scstep>
  <scstep>
   <time name="dav">    6.01    6.06</time>
   <time name="total">    6.01    6.06</time>
   <energy>
    <i name="e_fr_energy">     48.69562412 </i>
    <i name="e_wo_entrp">     48.70168101 </i>
    <i name="e_0_energy">     48.69713834 </i>
   </energy>
  </scstep>
  <scstep>
   <time name="dav">    7.70    7.78</time>
   <time name="total">    7.70    7.79</time>
   <energy>
    <i name="e_fr_energy">    -70.49352957 </i>
    <i name="e_wo_entrp">    -70.49124015 </i>
    <i name="e_0_energy">    -70.49295722 </i>
   </energy>
  </scstep>
  <scstep>
   <time name="dav">    7.71    7.80</time>
   <time name="total">    7.72    7.81</time>
   <energy>
    <i name="e_fr_energy">    -78.04264699 </i>
    <i name="e_wo_entrp">    -78.02269901 </i>
    <i name="e_0_energy">    -78.03765999 </i>
   </energy>
  </scstep>
  <scstep>
   <time name="dav">    7.37    7.45</time>
   <time name="total">    7.74    7.83</time>
   <energy>
    <i name="e_fr_energy">    -78.26391215 </i>
    <i name="e_wo_entrp">    -78.24391885 </i>
    <i name="e_0_energy">    -78.25891383 </i>
   </energy>
  </scstep>
  <scstep>
   <time name="diag">    0.90    0.91</time>
   <time name="diis">    5.11    5.17</time>
   <time name="orth">    0.07    0.07</time>
   <time name="total">    6.78    6.86</time>
   <energy>
    <i name="e_fr_energy">    -82.91917981 </i>
    <i name="e_wo_entrp">    -82.92860684 </i>
    <i name="e_0_energy">    -82.92153657 </i>
   </energy>
  </scstep>
  <scstep>
   <time name="diag">    0.91    0.92</time>
   <time name="diis">    5.17    5.22</time>
   <time name="orth">    0.07    0.07</time>
   <time name="total">    6.85    6.92</time>
   <energy>
    <i name="e_fr_energy">    -77.40942339 </i>
    <i name="e_wo_entrp">    -77.40613789 </i>
    <i name="e_0_energy">    -77.40860202 </i>
   </energy>
  </scstep>
  <scstep>
   <time name="diag">    0.91    0.92</time>
   <time name="diis">    5.32    5.36</time>
   <time name="orth">    0.07    0.07</time>
   <time name="total">    7.00    7.06</time>
   <energy>
    <i name="e_fr_energy">    -77.34390207 </i>
    <i name="e_wo_entrp">    -77.35012218 </i>
    <i name="e_0_energy">    -77.34545709 </i>
   </energy>
  </scstep>
  <scstep>
   <time name="diag">    0.91    0.92</time>
   <time name="diis">    5.02    5.08</time>
   <time name="orth">    0.07    0.07</time>
   <time name="total">    6.70    6.78</time>
   <energy>
    <i name="e_fr_energy">    -73.91448022 </i>
    <i name="e_wo_entrp">    -73.91174756 </i>
    <i name="e_0_energy">    -73.91379705 </i>
   </energy>
  </scstep>
  <scstep>
   <time name="diag">    0.91    0.91</time>
   <time name="diis">    4.94    4.99</time>
   <time name="orth">    0.07    0.07</time>
   <time name="total">    6.62    6.69</time>
   <energy>
    <i name="e_fr_energy">    -73.32949527 </i>
    <i name="e_wo_entrp">    -73.31147893 </i>
    <i name="e_0_energy">    -73.32499118 </i>
   </energy>
  </scstep>
  <scstep>
   <time name="diag">    0.83    0.84</time>
   <time name="diis">    5.43    5.48</time>
   <time name="orth">    0.07    0.07</time>
   <time name="total">    7.03    7.09</time>
   <energy>
    <i name="e_fr_energy">    -73.25974260 </i>
    <i name="e_wo_entrp">    -73.24180665 </i>
    <i name="e_0_energy">    -73.25525862 </i>
   </energy>
  </scstep>
  <scstep>
   <time name="diag">    0.89    0.89</time>
   <time name="diis">    5.36    5.40</time>
   <time name="orth">    0.07    0.07</time>
   <time name="total">    7.02    7.08</time>
   <energy>
    <i name="e_fr_energy">    -73.21786630 </i>
    <i name="e_wo_entrp">    -73.20125179 </i>
    <i name="e_0_energy">    -73.21371267 </i>
   </energy>
  </scstep>
  <scstep>
   <time name="diag">    0.87    0.88</time>
   <time name="diis">    5.03    5.09</time>
   <time name="orth">    0.07    0.07</time>
   <time name="total">    6.67    6.76</time>
   <energy>
    <i name="e_fr_energy">    -73.19385610 </i>
    <i name="e_wo_entrp">    -73.17388401 </i>
    <i name="e_0_energy">    -73.18886308 </i>
   </energy>
  </scstep>
  <scstep>
   <time name="diag">    0.89    0.90</time>
   <time name="diis">    5.03    5.07</time>
   <time name="orth">    0.07    0.07</time>
   <time name="total">    6.69    6.75</time>
   <energy>
    <i name="e_fr_energy">    -73.18570640 </i>
    <i name="e_wo_entrp">    -73.16423872 </i>
    <i name="e_0_energy">    -73.18033948 </i>
   </energy>
  </scstep>
  <scstep>
   <time name="diag">    0.89    0.90</time>
   <time name="diis">    5.57    5.64</time>
   <time name="orth">    0.07    0.07</time>
   <time name="total">    7.24    7.33</time>
   <energy>
    <i name="e_fr_energy">    -73.18378778 </i>
    <i name="e_wo_entrp">    -73.16263454 </i>
    <i name="e_0_energy">    -73.17849947 </i>
   </energy>
  </scstep>
  <scstep>
   <time name="diag">    0.85    0.86</time>
   <time name="diis">    5.13    5.19</time>
   <time name="orth">    0.07    0.07</time>
   <time name="total">    6.76    6.84</time>
   <energy>
    <i name="e_fr_energy">    -73.18304453 </i>
    <i name="e_wo_entrp">    -73.16204727 </i>
    <i name="e_0_energy">    -73.17779521 </i>
   </energy>
  </scstep>
  <scstep>
   <time name="diag">    0.84    0.85</time>
   <time name="diis">    3.64    3.69</time>
   <time name="orth">    0.07    0.07</time>
   <time name="total">    4.89    4.96</time>
   <energy>
    <i name="alphaZ">    648.92586142 </i>
    <i name="ewald">   -275.58887584 </i>
    <i name="hartreedc">  -8562.90039495 </i>
    <i name="XCdc">     71.84618308 </i>
    <i name="pawpsdc">   6272.92988719 </i>
    <i name="pawaedc">  -6016.39155172 </i>
    <i name="eentropy">     -0.02090803 </i>
    <i name="bandstr">    -82.61972866 </i>
    <i name="atom">   7870.63652434 </i>
    <i name="e_fr_energy">    -73.18300317 </i>
    <i name="e_wo_entrp">    -73.16209513 </i>
    <i name="e_0_energy">    -73.17777616 </i>
   </energy>
  </scstep>
  <structure>
   <crystal>
    <varray name="basis" >
     <v>       3.98960000       0.00000000       0.00000000 </v>
     <v>       0.00000000       3.98960000       0.00000000 </v>
     <v>       0.00000000       0.00000000      15.95840000 </v>
    </varray>
    <i name="volume">    254.00838718 </i>
    <varray name="rec_basis" >
     <v>       0.25065169       0.00000000       0.00000000 </v>
     <v>       0.00000000       0.25065169       0.00000000 </v>
     <v>       0.00000000       0.00000000       0.06266292 </v>
    </varray>
   </crystal>
   <varray name="positions" >
    <v>       0.00000000       0.00000000       0.00000000 </v>
    <v>       0.50000000       0.50000000       0.00000000 </v>
    <v>       0.00000000       0.50000000       0.12500000 </v>
    <v>       0.50000000       0.00000000       0.12500000 </v>
    <v>       0.00000000       0.00000000       0.25089497 </v>
    <v>       0.50000000       0.50000000       0.25089497 </v>
    <v>       0.00000000       0.50000000       0.37468655 </v>
    <v>       0.50000000       0.00000000       0.37468655 </v>
    <v>       0.00000000       0.00000000       0.49515742 </v>
    <v>       0.50000000       0.50000000       0.49515742 </v>
    <v>       0.00000000       0.00000000       0.62048326 </v>
    <v>       0.00000000       0.00000000       0.69254563 </v>
   </varray>
  </structure>
  <varray name="forces" >
   <v>       0.00000000       0.00000000       0.48777855 </v>
   <v>       0.00000000       0.00000000       0.43661041 </v>
   <v>       0.00000000       0.00000000      -0.17513043 </v>
   <v>       0.00000000       0.00000000      -0.17513043 </v>
   <v>       0.00000000       0.00000000      -0.57070333 </v>
   <v>       0.00000000       0.00000000      -0.07191855 </v>
   <v>       0.00000000       0.00000000      -0.46185813 </v>
   <v>       0.00000000       0.00000000      -0.46185813 </v>
   <v>       0.00000000       0.00000000       3.39480880 </v>
   <v>       0.00000000       0.00000000      -0.29290120 </v>
   <v>       0.00000000       0.00000000      -2.74914526 </v>
   <v>       0.00000000       0.00000000       0.63944772 </v>
  </varray>
  <varray name="stress" >
   <v>     -45.24453017       0.00000000       0.00000000 </v>
   <v>       0.00000000     -45.24453017       0.00000000 </v>
   <v>       0.00000000       0.00000000     -28.88734455 </v>
  </varray>
  <energy>
   <i name="e_fr_energy">    -73.18300317 </i>
   <i name="e_wo_entrp">    -73.17777616 </i>
   <i name="e_0_energy">     -0.02090803 </i>
  </energy>
  <time name="totalsc">  128.19  129.58</time>
 </calculation>
 <calculation>
  <scstep>
   <time name="dav">    6.29    6.34</time>
   <time name="total">    7.03    7.08</time>
   <energy>
    <i name="alphaZ">    648.92586142 </i>
    <i name="ewald">   -401.59707090 </i>
    <i name="hartreedc">  -8444.06989004 </i>
    <i name="XCdc">     71.59148695 </i>
    <i name="pawpsdc">   6273.01765037 </i>
    <i name="pawaedc">  -6016.45947471 </i>
    <i name="eentropy">     -0.01779575 </i>
    <i name="bandstr">    -74.07199479 </i>
    <i name="atom">   7870.63652434 </i>
    <i name="e_fr_energy">    -72.04470309 </i>
    <i name="e_wo_entrp">    -72.02690734 </i>
    <i name="e_0_energy">    -72.04025415 </i>
   </energy>
  </scstep>
  <scstep>
   <time name="diag">    0.90    0.90</time>
   <time name="diis">    5.05    5.09</time>
   <time name="orth">    0.07    0.07</time>
   <time name="total">    6.73    6.79</time>
   <energy>
    <i name="e_fr_energy">    -72.70864284 </i>
    <i name="e_wo_entrp">    -72.69154645 </i>
    <i name="e_0_energy">    -72.70436874 </i>
   </energy>
  </scstep>
  <scstep>
   <time name="diag">    0.87    0.88</time>
   <time name="diis">    6.40    6.48</time>
   <time name="orth">    0.07    0.07</time>
   <time name="total">    8.05    8.14</time>
   <energy>
    <i name="e_fr_energy">    -73.17141500 </i>
    <i name="e_wo_entrp">    -73.15090655 </i>
    <i name="e_0_energy">    -73.16628789 </i>
   </energy>
  </scstep>
  <scstep>
   <time name="diag">    0.89    0.90</time>
   <time name="diis">    5.07    5.13</time>
   <time name="orth">    0.07    0.07</time>
   <time name="total">    6.73    6.81</time>
   <energy>
    <i name="e_fr_energy">    -72.49594353 </i>
    <i name="e_wo_entrp">    -72.47654477 </i>
    <i name="e_0_energy">    -72.49109384 </i>
   </energy>
  </scstep>
  <scstep>
   <time name="diag">    0.89    0.90</time>
   <time name="diis">    5.24    5.31</time>
   <time name="orth">    0.07    0.07</time>
   <time name="total">    6.90    6.98</time>
   <energy>
    <i name="e_fr_energy">    -72.48898143 </i>
    <i name="e_wo_entrp">    -72.47330994 </i>
    <i name="e_0_energy">    -72.48506356 </i>
   </energy>
  </scstep>
  <scstep>
   <time name="diag">    0.89    0.90</time>
   <time name="diis">    5.20    5.26</time>
   <time name="orth">    0.07    0.07</time>
   <time name="total">    6.86    6.94</time>
   <energy>
    <i name="e_fr_energy">    -72.44701552 </i>
    <i name="e_wo_entrp">    -72.42704658 </i>
    <i name="e_0_energy">    -72.44202329 </i>
   </energy>
  </scstep>
  <scstep>
   <time name="diag">    0.85    0.86</time>
   <time name="diis">    5.05    5.09</time>
   <time name="orth">    0.07    0.07</time>
   <time name="total">    6.67    6.73</time>
   <energy>
    <i name="e_fr_energy">    -72.43863149 </i>
    <i name="e_wo_entrp">    -72.42048804 </i>
    <i name="e_0_energy">    -72.43409563 </i>
   </energy>
  </scstep>
  <scstep>
   <time name="diag">    0.86    0.87</time>
   <time name="diis">    5.02    5.07</time>
   <time name="orth">    0.07    0.07</time>
   <time name="total">    6.66    6.72</time>
   <energy>
    <i name="e_fr_energy">    -72.42409086 </i>
    <i name="e_wo_entrp">    -72.40471836 </i>
    <i name="e_0_energy">    -72.41924774 </i>
   </energy>
  </scstep>
  <scstep>
   <time name="diag">    0.86    0.86</time>
   <time name="diis">    5.41    5.48</time>
   <time name="orth">    0.07    0.07</time>
   <time name="total">    7.04    7.12</time>
   <energy>
    <i name="e_fr_energy">    -72.42486492 </i>
    <i name="e_wo_entrp">    -72.40517117 </i>
    <i name="e_0_energy">    -72.41994148 </i>
   </energy>
  </scstep>
  <scstep>
   <time name="diag">    0.85    0.86</time>
   <time name="diis">    4.57    4.62</time>
   <time name="orth">    0.07    0.07</time>
   <time name="total">    6.19    6.26</time>
   <energy>
    <i name="e_fr_energy">    -72.42519050 </i>
    <i name="e_wo_entrp">    -72.40575398 </i>
    <i name="e_0_energy">    -72.42033137 </i>
   </energy>
  </scstep>
  <scstep>
   <time name="diag">    0.85    0.85</time>
   <time name="diis">    3.94    3.98</time>
   <time name="orth">    0.07    0.07</time>
   <time name="total">    5.56    5.62</time>
   <energy>
    <i name="e_fr_energy">    -72.42572670 </i>
    <i name="e_wo_entrp">    -72.40626231 </i>
    <i name="e_0_energy">    -72.42086060 </i>
   </energy>
  </scstep>
  <scstep>
   <time name="diag">    0.88    0.89</time>
   <time name="diis">    2.96    2.98</time>
   <time name="orth">    0.07    0.07</time>
   <time name="total">    4.25    4.28</time>
   <energy>
    <i name="alphaZ">    648.92586142 </i>
    <i name="ewald">   -401.59707090 </i>
    <i name="hartreedc">  -8419.22169868 </i>
    <i name="XCdc">     71.33850652 </i>
    <i name="pawpsdc">   6269.69588861 </i>
    <i name="pawaedc">  -6013.61644758 </i>
    <i name="eentropy">     -0.01941632 </i>
    <i name="bandstr">    -98.56788117 </i>
    <i name="atom">   7870.63652434 </i>
    <i name="e_fr_energy">    -72.42573376 </i>
    <i name="e_wo_entrp">    -72.40631743 </i>
    <i name="e_0_energy">    -72.42087968 </i>
   </energy>
  </scstep>
  <structure>
   <crystal>
    <varray name="basis" >
     <v>       3.98960000       0.00000000       0.00000000 </v>
     <v>       0.00000000       3.98960000       0.00000000 </v>
     <v>       0.00000000       0.00000000      15.95840000 </v>
    </varray>
    <i name="volume">    254.00838718 </i>
    <varray name="rec_basis" >
     <v>       0.25065169       0.00000000       0.00000000 </v>
     <v>       0.00000000       0.25065169       0.00000000 </v>
     <v>       0.00000000       0.00000000       0.06266292 </v>
    </varray>
   </crystal>
   <varray name="positions" >
    <v>       0.00000000       0.00000000       0.00000000 </v>
    <v>       0.50000000       0.50000000       0.00000000 </v>
    <v>       0.00000000       0.50000000       0.12500000 </v>
    <v>       0.50000000       0.00000000       0.12500000 </v>
    <v>       0.00000000       0.00000000       0.24916972 </v>
    <v>       0.50000000       0.50000000       0.25067755 </v>
    <v>       0.00000000       0.50000000       0.37329035 </v>
    <v>       0.50000000       0.00000000       0.37329035 </v>
    <v>       0.00000000       0.00000000       0.50542001 </v>
    <v>       0.50000000       0.50000000       0.49427197 </v>
    <v>       0.00000000       0.00000000       0.61217253 </v>
    <v>       0.00000000       0.00000000       0.69447869 </v>
   </varray>
  </structure>
  <varray name="forces" >
   <v>       0.00000000       0.00000000       0.47729672 </v>
   <v>       0.00000000       0.00000000       0.41065062 </v>
   <v>       0.00000000       0.00000000      -0.25861949 </v>
   <v>       0.00000000       0.00000000      -0.25861949 </v>
   <v>       0.00000000       0.00000000      -0.46925136 </v>
   <v>       0.00000000       0.00000000      -0.14342345 </v>
   <v>       0.00000000       0.00000000       0.14563215 </v>
   <v>       0.00000000       0.00000000       0.14563215 </v>
   <v>       0.00000000       0.00000000      -4.34437657 </v>
   <v>       0.00000000       0.00000000      -0.49419728 </v>
   <v>       0.00000000       0.00000000      13.48456475 </v>
   <v>       0.00000000       0.00000000      -8.69528874 </v>
  </varray>
  <varray name="stress" >
   <v>     -49.89059788       0.00000000       0.00000000 </v>
   <v>       0.00000000     -49.89059788       0.00000000 </v>
   <v>       0.00000000       0.00000000     -37.43019662 </v>
  </varray>
  <energy>
   <i name="e_fr_energy">    -72.42573376 </i>
   <i name="e_wo_entrp">    -72.42087968 </i>
   <i name="e_0_energy">     -0.01941632 </i>
  </energy>
  <time name="totalsc">   90.44   91.40</time>
 </calculation>
 <calculation>
  <scstep>
   <time name="dav">    6.31    6.38</time>
   <time name="total">    7.02    7.09</time>
   <energy>
    <i name="alphaZ">    648.92586142 </i>
    <i name="ewald">   -317.79493273 </i>
    <i name="hartreedc">  -8499.43251224 </i>
    <i name="XCdc">     71.45363387 </i>
    <i name="pawpsdc">   6269.78160340 </i>
    <i name="pawaedc">  -6013.70169974 </i>
    <i name="eentropy">     -0.02285436 </i>
    <i name="bandstr">   -102.90850298 </i>
    <i name="atom">   7870.63652434 </i>
    <i name="e_fr_energy">    -73.06287901 </i>
    <i name="e_wo_entrp">    -73.04002465 </i>
    <i name="e_0_energy">    -73.05716542 </i>
   </energy>
  </scstep>
  <scstep>
   <time name="diag">    0.88    0.89</time>
   <time name="diis">    5.04    5.10</time>
   <time name="orth">    0.07    0.07</time>
   <time name="total">    6.70    6.78</time>
   <energy>
    <i name="e_fr_energy">    -73.35822823 </i>
    <i name="e_wo_entrp">    -73.33569948 </i>
    <i name="e_0_energy">    -73.35259604 </i>
   </energy>
  </scstep>
  <scstep>
   <time name="diag">    0.89    0.89</time>
   <time name="diis">    6.40    6.48</time>
   <time name="orth">    0.07    0.07</time>
   <time name="total">    8.09    8.19</time>
   <energy>
    <i name="e_fr_energy">    -73.56870857 </i>
    <i name="e_wo_entrp">    -73.56297626 </i>
    <i name="e_0_energy">    -73.56727550 </i>
   </energy>
  </scstep>
  <scstep>
   <time name="diag">    0.86    0.86</time>
   <time name="diis">    5.31    5.36</time>
   <time name="orth">    0.07    0.07</time>
   <time name="total">    6.94    7.00</time>
   <energy>
    <i name="e_fr_energy">    -73.36150906 </i>
    <i name="e_wo_entrp">    -73.33921980 </i>
    <i name="e_0_energy">    -73.35593675 </i>
   </energy>
  </scstep>
  <scstep>
   <time name="diag">    0.87    0.87</time>
   <time name="diis">    5.02    5.06</time>
   <time name="orth">    0.07    0.07</time>
   <time name="total">    6.65    6.71</time>
   <energy>
    <i name="e_fr_energy">    -73.34384197 </i>
    <i name="e_wo_entrp">    -73.32132795 </i>
    <i name="e_0_energy">    -73.33821346 </i>
   </energy>
  </scstep>
  <scstep>
   <time name="diag">    0.88    0.89</time>
   <time name="diis">    5.23    5.30</time>
   <time name="orth">    0.07    0.07</time>
   <time name="total">    6.91    6.99</time>
   <energy>
    <i name="e_fr_energy">    -73.34864456 </i>
    <i name="e_wo_entrp">    -73.32922476 </i>
    <i name="e_0_energy">    -73.34378961 </i>
   </energy>
  </scstep>
  <scstep>
   <time name="diag">    0.85    0.85</time>
   <time name="diis">    5.13    5.18</time>
   <time name="orth">    0.07    0.07</time>
   <time name="total">    6.75    6.81</time>
   <energy>
    <i name="e_fr_energy">    -73.33022213 </i>
    <i name="e_wo_entrp">    -73.30818853 </i>
    <i name="e_0_energy">    -73.32471373 </i>
   </energy>
  </scstep>
  <scstep>
   <time name="diag">    0.84    0.85</time>
   <time name="diis">    5.03    5.09</time>
   <time name="orth">    0.07    0.07</time>
   <time name="total">    6.64    6.71</time>
   <energy>
    <i name="e_fr_energy">    -73.32680204 </i>
    <i name="e_wo_entrp">    -73.30498753 </i>
    <i name="e_0_energy">    -73.32134841 </i>
   </energy>
  </scstep>
  <scstep>
   <time name="diag">    0.88    0.89</time>
   <time name="diis">    5.03    5.07</time>
   <time name="orth">    0.07    0.07</time>
   <time name="total">    6.68    6.74</time>
   <energy>
    <i name="e_fr_energy">    -73.32571305 </i>
    <i name="e_wo_entrp">    -73.30373315 </i>
    <i name="e_0_energy">    -73.32021807 </i>
   </energy>
  </scstep>
  <scstep>
   <time name="diag">    0.88    0.89</time>
   <time name="diis">    4.91    4.97</time>
   <time name="orth">    0.07    0.07</time>
   <time name="total">    6.57    6.65</time>
   <energy>
    <i name="e_fr_energy">    -73.32550547 </i>
    <i name="e_wo_entrp">    -73.30344003 </i>
    <i name="e_0_energy">    -73.31998911 </i>
   </energy>
  </scstep>
  <scstep>
   <time name="diag">    0.85    0.86</time>
   <time name="diis">    4.07    4.12</time>
   <time name="orth">    0.07    0.07</time>
   <time name="total">    5.34    5.41</time>
   <energy>
    <i name="alphaZ">    648.92586142 </i>
    <i name="ewald">   -317.79493273 </i>
    <i name="hartreedc">  -8516.19694092 </i>
    <i name="XCdc">     71.59603008 </i>
    <i name="pawpsdc">   6264.09215470 </i>
    <i name="pawaedc">  -6007.61827217 </i>
    <i name="eentropy">     -0.02200898 </i>
    <i name="bandstr">    -86.94384481 </i>
    <i name="atom">   7870.63652434 </i>
    <i name="e_fr_energy">    -73.32542905 </i>
    <i name="e_wo_entrp">    -73.30342007 </i>
    <i name="e_0_energy">    -73.31992681 </i>
   </energy>
  </scstep>
  <structure>
   <crystal>
    <varray name="basis" >
     <v>       3.98960000       0.00000000       0.00000000 </v>
     <v>       0.00000000       3.98960000       0.00000000 </v>
     <v>       0.00000000       0.00000000      15.95840000 </v>
    </varray>
    <i name="volume">    254.00838718 </i>
    <varray name="rec_basis" >
     <v>       0.25065169       0.00000000       0.00000000 </v>
     <v>       0.00000000       0.25065169       0.00000000 </v>
     <v>       0.00000000       0.00000000       0.06266292 </v>
    </varray>
   </crystal>
   <varray name="positions" >
    <v>       0.00000000       0.00000000       0.00000000 </v>
    <v>       0.50000000       0.50000000       0.00000000 </v>
    <v>       0.00000000       0.50000000       0.12500000 </v>
    <v>       0.50000000       0.00000000       0.12500000 </v>
    <v>       0.00000000       0.00000000       0.25036562 </v>
    <v>       0.50000000       0.50000000       0.25082826 </v>
    <v>       0.00000000       0.50000000       0.37425816 </v>
    <v>       0.50000000       0.00000000       0.37425816 </v>
    <v>       0.00000000       0.00000000       0.49830623 </v>
    <v>       0.50000000       0.50000000       0.49488574 </v>
    <v>       0.00000000       0.00000000       0.61793333 </v>
    <v>       0.00000000       0.00000000       0.69313874 </v>
   </varray>
  </structure>
  <varray name="forces" >
   <v>       0.00000000       0.00000000       0.47865241 </v>
   <v>       0.00000000       0.00000000       0.42694963 </v>
   <v>       0.00000000       0.00000000      -0.19559061 </v>
   <v>       0.00000000       0.00000000      -0.19559061 </v>
   <v>       0.00000000       0.00000000      -0.56332917 </v>
   <v>       0.00000000       0.00000000      -0.08293853 </v>
   <v>       0.00000000       0.00000000      -0.23545988 </v>
   <v>       0.00000000       0.00000000      -0.23545988 </v>
   <v>       0.00000000       0.00000000       2.20979917 </v>
   <v>       0.00000000       0.00000000      -0.37030318 </v>
   <v>       0.00000000       0.00000000       2.45064732 </v>
   <v>       0.00000000       0.00000000      -3.68737666 </v>
  </varray>
  <varray name="stress" >
   <v>     -46.14239856       0.00000000       0.00000000 </v>
   <v>       0.00000000     -46.14239856       0.00000000 </v>
   <v>       0.00000000       0.00000000     -52.88604701 </v>
  </varray>
  <energy>
   <i name="e_fr_energy">    -73.32542905 </i>
   <i name="e_wo_entrp">    -73.31992681 </i>
   <i name="e_0_energy">     -0.02200898 </i>
  </energy>
  <time name="totalsc">   86.00   86.92</time>
 </calculation>
 <calculation>
  <scstep>
   <time name="dav">    6.11    6.17</time>
   <time name="total">    6.82    6.88</time>
   <energy>
    <i name="alphaZ">    648.92586142 </i>
    <i name="ewald">   -374.77203389 </i>
    <i name="hartreedc">  -8455.17095619 </i>
    <i name="XCdc">     71.81709963 </i>
    <i name="pawpsdc">   6263.73219684 </i>
    <i name="pawaedc">  -6007.25494293 </i>
    <i name="eentropy">     -0.01932936 </i>
    <i name="bandstr">    -91.20773477 </i>
    <i name="atom">   7870.63652434 </i>
    <i name="e_fr_energy">    -73.31331490 </i>
    <i name="e_wo_entrp">    -73.29398554 </i>
    <i name="e_0_energy">    -73.30848256 </i>
   </energy>
  </scstep>
  <scstep>
   <time name="diag">    0.90    0.91</time>
   <time name="diis">    5.14    5.27</time>
   <time name="orth">    0.07    0.07</time>
   <time name="total">    6.82    6.97</time>
   <energy>
    <i name="e_fr_energy">    -73.49458045 </i>
    <i name="e_wo_entrp">    -73.47481058 </i>
    <i name="e_0_energy">    -73.48963798 </i>
   </energy>
  </scstep>
  <scstep>
   <time name="diag">    0.87    0.88</time>
   <time name="diis">    7.69    7.77</time>
   <time name="orth">    0.08    0.08</time>
   <time name="total">    9.47    9.57</time>
   <energy>
    <i name="e_fr_energy">    -73.60951585 </i>
    <i name="e_wo_entrp">    -73.58882658 </i>
    <i name="e_0_energy">    -73.60434353 </i>
   </energy>
  </scstep>
  <scstep>
   <time name="diag">    1.00    1.01</time>
   <time name="diis">    5.85    5.93</time>
   <time name="orth">    0.07    0.07</time>
   <time name="total">    7.66    7.75</time>
   <energy>
    <i name="e_fr_energy">    -73.48857439 </i>
    <i name="e_wo_entrp">    -73.46965649 </i>
    <i name="e_0_energy">    -73.48384492 </i>
   </energy>
  </scstep>
  <scstep>
   <time name="diag">    0.90    0.91</time>
   <time name="diis">    5.92    5.97</time>
   <time name="orth">    0.07    0.07</time>
   <time name="total">    7.59    7.66</time>
   <energy>
    <i name="e_fr_energy">    -73.48254985 </i>
    <i name="e_wo_entrp">    -73.46173707 </i>
    <i name="e_0_energy">    -73.47734665 </i>
   </energy>
  </scstep>
  <scstep>
   <time name="diag">    0.85    0.86</time>
   <time name="diis">    5.06    5.11</time>
   <time name="orth">    0.07    0.07</time>
   <time name="total">    6.69    6.75</time>
   <energy>
    <i name="e_fr_energy">    -73.47810711 </i>
    <i name="e_wo_entrp">    -73.45828241 </i>
    <i name="e_0_energy">    -73.47315094 </i>
   </energy>
  </scstep>
  <scstep>
   <time name="diag">    0.88    0.88</time>
   <time name="diis">    5.08    5.14</time>
   <time name="orth">    0.07    0.07</time>
   <time name="total">    6.74    6.81</time>
   <energy>
    <i name="e_fr_energy">    -73.47716944 </i>
    <i name="e_wo_entrp">    -73.45719330 </i>
    <i name="e_0_energy">    -73.47217541 </i>
   </energy>
  </scstep>
  <scstep>
   <time name="diag">    0.87    0.88</time>
   <time name="diis">    5.01    5.07</time>
   <time name="orth">    0.07    0.07</time>
   <time name="total">    6.65    6.73</time>
   <energy>
    <i name="e_fr_energy">    -73.47507103 </i>
    <i name="e_wo_entrp">    -73.45497168 </i>
    <i name="e_0_energy">    -73.47004619 </i>
   </energy>
  </scstep>
  <scstep>
   <time name="diag">    0.87    0.88</time>
   <time name="diis">    4.04    4.09</time>
   <time name="orth">    0.07    0.07</time>
   <time name="total">    5.68    5.75</time>
   <energy>
    <i name="e_fr_energy">    -73.47491090 </i>
    <i name="e_wo_entrp">    -73.45469117 </i>
    <i name="e_0_energy">    -73.46985597 </i>
   </energy>
  </scstep>
  <scstep>
   <time name="diag">    0.88    0.89</time>
   <time name="diis">    2.94    2.96</time>
   <time name="orth">    0.07    0.07</time>
   <time name="total">    4.59    4.63</time>
   <energy>
    <i name="e_fr_energy">    -73.47481085 </i>
    <i name="e_wo_entrp">    -73.45467768 </i>
    <i name="e_0_energy">    -73.46977756 </i>
   </energy>
  </scstep>
  <scstep>
   <time name="diag">    0.87    0.87</time>
   <time name="diis">    3.44    3.48</time>
   <time name="orth">    0.08    0.08</time>
   <time name="total">    4.73    4.78</time>
   <energy>
    <i name="alphaZ">    648.92586142 </i>
    <i name="ewald">   -374.77203389 </i>
    <i name="hartreedc">  -8455.56273096 </i>
    <i name="XCdc">     71.94849580 </i>
    <i name="pawpsdc">   6284.28712808 </i>
    <i name="pawaedc">  -6028.05696132 </i>
    <i name="eentropy">     -0.02018772 </i>
    <i name="bandstr">    -90.86087026 </i>
    <i name="atom">   7870.63652434 </i>
    <i name="e_fr_energy">    -73.47477450 </i>
    <i name="e_wo_entrp">    -73.45458679 </i>
    <i name="e_0_energy">    -73.46972757 </i>
   </energy>
  </scstep>
  <structure>
   <crystal>
    <varray name="basis" >
     <v>       3.98960000       0.00000000       0.00000000 </v>
     <v>       0.00000000       3.98960000       0.00000000 </v>
     <v>       0.00000000       0.00000000      15.95840000 </v>
    </varray>
    <i name="volume">    254.00838718 </i>
    <varray name="rec_basis" >
     <v>       0.25065169       0.00000000       0.00000000 </v>
     <v>       0.00000000       0.25065169       0.00000000 </v>
     <v>       0.00000000       0.00000000       0.06266292 </v>
    </varray>
   </crystal>
   <varray name="positions" >
    <v>       0.00000000       0.00000000       0.00000000 </v>
    <v>       0.50000000       0.50000000       0.00000000 </v>
    <v>       0.00000000       0.50000000       0.12500000 </v>
    <v>       0.50000000       0.00000000       0.12500000 </v>
    <v>       0.00000000       0.00000000       0.24914072 </v>
    <v>       0.50000000       0.50000000       0.25066258 </v>
    <v>       0.00000000       0.50000000       0.37347570 </v>
    <v>       0.50000000       0.00000000       0.37347570 </v>
    <v>       0.00000000       0.00000000       0.50451143 </v>
    <v>       0.50000000       0.50000000       0.49418017 </v>
    <v>       0.00000000       0.00000000       0.61692525 </v>
    <v>       0.00000000       0.00000000       0.69041996 </v>
   </varray>
  </structure>
  <varray name="forces" >
   <v>       0.00000000       0.00000000       0.48390728 </v>
   <v>       0.00000000       0.00000000       0.41339800 </v>
   <v>       0.00000000       0.00000000      -0.25315296 </v>
   <v>       0.00000000       0.00000000      -0.25315296 </v>
   <v>       0.00000000       0.00000000      -0.42495273 </v>
   <v>       0.00000000       0.00000000      -0.10810908 </v>
   <v>       0.00000000       0.00000000       0.11149259 </v>
   <v>       0.00000000       0.00000000       0.11149259 </v>
   <v>       0.00000000       0.00000000      -1.11124197 </v>
   <v>       0.00000000       0.00000000      -0.45196420 </v>
   <v>       0.00000000       0.00000000       2.43852515 </v>
   <v>       0.00000000       0.00000000      -0.95624172 </v>
  </varray>
  <varray name="stress" >
   <v>     -51.08083096       0.00000000       0.00000000 </v>
   <v>       0.00000000     -51.08083096       0.00000000 </v>
   <v>       0.00000000       0.00000000      -6.44935091 </v>
  </varray>
  <energy>
   <i name="e_fr_energy">    -73.47477450 </i>
   <i name="e_wo_entrp">    -73.46972757 </i>
   <i name="e_0_energy">     -0.02018772 </i>
  </energy>
  <time name="totalsc">   85.75   86.75</time>
 </calculation>
 <calculation>
  <scstep>
   <time name="dav">    6.10    6.17</time>
   <time name="total">    6.81    6.88</time>
   <energy>
    <i name="alphaZ">    648.92586142 </i>
    <i name="ewald">   -365.06647482 </i>
    <i name="hartreedc">  -8466.16567903 </i>
    <i name="XCdc">     71.90622456 </i>
    <i name="pawpsdc">   6284.36982374 </i>
    <i name="pawaedc">  -6028.14101798 </i>
    <i name="eentropy">     -0.02061673 </i>
    <i name="bandstr">    -89.92532675 </i>
    <i name="atom">   7870.63652434 </i>
    <i name="e_fr_energy">    -73.48068124 </i>
    <i name="e_wo_entrp">    -73.46006451 </i>
    <i name="e_0_energy">    -73.47552706 </i>
   </energy>
  </scstep>
  <scstep>
   <time name="diag">    0.90    0.91</time>
   <time name="diis">    5.01    5.07</time>
   <time name="orth">    0.07    0.07</time>
   <time name="total">    6.68    6.76</time>
   <energy>
    <i name="e_fr_energy">    -73.48332786 </i>
    <i name="e_wo_entrp">    -73.46273481 </i>
    <i name="e_0_energy">    -73.47817960 </i>
   </energy>
  </scstep>
  <scstep>
   <time name="diag">    0.89    0.90</time>
   <time name="diis">    5.34    5.40</time>
   <time name="orth">    0.07    0.07</time>
   <time name="total">    7.01    7.10</time>
   <energy>
    <i name="e_fr_energy">    -73.48614407 </i>
    <i name="e_wo_entrp">    -73.46606776 </i>
    <i name="e_0_energy">    -73.48112499 </i>
   </energy>
  </scstep>
  <scstep>
   <time name="diag">    0.89    0.90</time>
   <time name="diis">    4.70    4.76</time>
   <time name="orth">    0.07    0.07</time>
   <time name="total">    6.37    6.45</time>
   <energy>
    <i name="e_fr_energy">    -73.48334902 </i>
    <i name="e_wo_entrp">    -73.46274435 </i>
    <i name="e_0_energy">    -73.47819785 </i>
   </energy>
  </scstep>
  <scstep>
   <time name="diag">    0.89    0.90</time>
   <time name="diis">    3.15    3.18</time>
   <time name="orth">    0.07    0.07</time>
   <time name="total">    4.82    4.86</time>
   <energy>
    <i name="e_fr_energy">    -73.48318074 </i>
    <i name="e_wo_entrp">    -73.46268949 </i>
    <i name="e_0_energy">    -73.47805793 </i>
   </energy>
  </scstep>
  <scstep>
   <time name="diag">    0.89    0.90</time>
   <time name="diis">    3.27    3.30</time>
   <time name="orth">    0.07    0.07</time>
   <time name="total">    4.57    4.61</time>
   <energy>
    <i name="alphaZ">    648.92586142 </i>
    <i name="ewald">   -365.06647482 </i>
    <i name="hartreedc">  -8466.20611335 </i>
    <i name="XCdc">     71.88175843 </i>
    <i name="pawpsdc">   6280.58783211 </i>
    <i name="pawaedc">  -6024.31372431 </i>
    <i name="eentropy">     -0.02063752 </i>
    <i name="bandstr">    -89.90819208 </i>
    <i name="atom">   7870.63652434 </i>
    <i name="e_fr_energy">    -73.48316577 </i>
    <i name="e_wo_entrp">    -73.46252825 </i>
    <i name="e_0_energy">    -73.47800639 </i>
   </energy>
  </scstep>
  <structure>
   <crystal>
    <varray name="basis" >
     <v>       3.98960000       0.00000000       0.00000000 </v>
     <v>       0.00000000       3.98960000       0.00000000 </v>
     <v>       0.00000000       0.00000000      15.95840000 </v>
    </varray>
    <i name="volume">    254.00838718 </i>
    <varray name="rec_basis" >
     <v>       0.25065169       0.00000000       0.00000000 </v>
     <v>       0.00000000       0.25065169       0.00000000 </v>
     <v>       0.00000000       0.00000000       0.06266292 </v>
    </varray>
   </crystal>
   <varray name="positions" >
    <v>       0.00000000       0.00000000       0.00000000 </v>
    <v>       0.50000000       0.50000000       0.00000000 </v>
    <v>       0.00000000       0.50000000       0.12500000 </v>
    <v>       0.50000000       0.00000000       0.12500000 </v>
    <v>       0.00000000       0.00000000       0.24935902 </v>
    <v>       0.50000000       0.50000000       0.25069211 </v>
    <v>       0.00000000       0.50000000       0.37361516 </v>
    <v>       0.50000000       0.00000000       0.37361516 </v>
    <v>       0.00000000       0.00000000       0.50340552 </v>
    <v>       0.50000000       0.50000000       0.49430592 </v>
    <v>       0.00000000       0.00000000       0.61710491 </v>
    <v>       0.00000000       0.00000000       0.69090451 </v>
   </varray>
  </structure>
  <varray name="forces" >
   <v>       0.00000000       0.00000000       0.48063939 </v>
   <v>       0.00000000       0.00000000       0.41341489 </v>
   <v>       0.00000000       0.00000000      -0.23703739 </v>
   <v>       0.00000000       0.00000000      -0.23703739 </v>
   <v>       0.00000000       0.00000000      -0.44698752 </v>
   <v>       0.00000000       0.00000000      -0.10101723 </v>
   <v>       0.00000000       0.00000000       0.04905414 </v>
   <v>       0.00000000       0.00000000       0.04905414 </v>
   <v>       0.00000000       0.00000000      -0.37708965 </v>
   <v>       0.00000000       0.00000000      -0.43197346 </v>
   <v>       0.00000000       0.00000000       2.32019440 </v>
   <v>       0.00000000       0.00000000      -1.48121432 </v>
  </varray>
  <varray name="stress" >
   <v>     -50.81507768       0.00000000       0.00000000 </v>
   <v>       0.00000000     -50.81507768       0.00000000 </v>
   <v>       0.00000000       0.00000000     -17.93225651 </v>
  </varray>
  <energy>
   <i name="e_fr_energy">    -73.48316577 </i>
   <i name="e_wo_entrp">    -73.47800639 </i>
   <i name="e_0_energy">     -0.02063752 </i>
  </energy>
  <time name="totalsc">   47.92   48.44</time>
 </calculation>
 <calculation>
  <scstep>
   <time name="dav">    6.18    6.24</time>
   <time name="total">    6.89    6.95</time>
   <energy>
    <i name="alphaZ">    648.92586142 </i>
    <i name="ewald">   -342.82014702 </i>
    <i name="hartreedc">  -8483.97829134 </i>
    <i name="XCdc">     72.03396111 </i>
    <i name="pawpsdc">   6280.13762398 </i>
    <i name="pawaedc">  -6023.85972898 </i>
    <i name="eentropy">     -0.02075176 </i>
    <i name="bandstr">    -94.48821578 </i>
    <i name="atom">   7870.63652434 </i>
    <i name="e_fr_energy">    -73.43316403 </i>
    <i name="e_wo_entrp">    -73.41241226 </i>
    <i name="e_0_energy">    -73.42797609 </i>
   </energy>
  </scstep>
  <scstep>
   <time name="diag">    0.90    0.91</time>
   <time name="diis">    5.47    5.54</time>
   <time name="orth">    0.07    0.07</time>
   <time name="total">    7.15    7.24</time>
   <energy>
    <i name="e_fr_energy">    -73.44786461 </i>
    <i name="e_wo_entrp">    -73.42671428 </i>
    <i name="e_0_energy">    -73.44257702 </i>
   </energy>
  </scstep>
  <scstep>
   <time name="diag">    0.90    0.90</time>
   <time name="diis">    5.45    5.50</time>
   <time name="orth">    0.07    0.07</time>
   <time name="total">    7.14    7.20</time>
   <energy>
    <i name="e_fr_energy">    -73.45865136 </i>
    <i name="e_wo_entrp">    -73.44055729 </i>
    <i name="e_0_energy">    -73.45412784 </i>
   </energy>
  </scstep>
  <scstep>
   <time name="diag">    0.87    0.88</time>
   <time name="diis">    5.98    6.05</time>
   <time name="orth">    0.07    0.07</time>
   <time name="total">    7.67    7.76</time>
   <energy>
    <i name="e_fr_energy">    -73.44243880 </i>
    <i name="e_wo_entrp">    -73.42215474 </i>
    <i name="e_0_energy">    -73.43736778 </i>
   </energy>
  </scstep>
  <scstep>
   <time name="diag">    0.90    0.91</time>
   <time name="diis">    5.45    5.52</time>
   <time name="orth">    0.07    0.07</time>
   <time name="total">    7.13    7.22</time>
   <energy>
    <i name="e_fr_energy">    -73.44156476 </i>
    <i name="e_wo_entrp">    -73.42054655 </i>
    <i name="e_0_energy">    -73.43631020 </i>
   </energy>
  </scstep>
  <scstep>
   <time name="diag">    0.87    0.88</time>
   <time name="diis">    5.00    5.06</time>
   <time name="orth">    0.07    0.07</time>
   <time name="total">    6.64    6.72</time>
   <energy>
    <i name="e_fr_energy">    -73.43557023 </i>
    <i name="e_wo_entrp">    -73.41523029 </i>
    <i name="e_0_energy">    -73.43048524 </i>
   </energy>
  </scstep>
  <scstep>
   <time name="diag">    0.86    0.87</time>
   <time name="diis">    4.98    5.02</time>
   <time name="orth">    0.07    0.07</time>
   <time name="total">    6.62    6.68</time>
   <energy>
    <i name="e_fr_energy">    -73.43486632 </i>
    <i name="e_wo_entrp">    -73.41437086 </i>
    <i name="e_0_energy">    -73.42974246 </i>
   </energy>
  </scstep>
  <scstep>
   <time name="diag">    0.86    0.87</time>
   <time name="diis">    3.65    3.70</time>
   <time name="orth">    0.07    0.07</time>
   <time name="total">    5.28    5.35</time>
   <energy>
    <i name="e_fr_energy">    -73.43463412 </i>
    <i name="e_wo_entrp">    -73.41416012 </i>
    <i name="e_0_energy">    -73.42951562 </i>
   </energy>
  </scstep>
  <scstep>
   <time name="diag">    0.88    0.89</time>
   <time name="diis">    3.07    3.10</time>
   <time name="orth">    0.07    0.07</time>
   <time name="total">    4.34    4.39</time>
   <energy>
    <i name="alphaZ">    648.92586142 </i>
    <i name="ewald">   -342.82014702 </i>
    <i name="hartreedc">  -8491.44225133 </i>
    <i name="XCdc">     72.15853727 </i>
    <i name="pawpsdc">   6290.31987695 </i>
    <i name="pawaedc">  -6033.99601204 </i>
    <i name="eentropy">     -0.02051526 </i>
    <i name="bandstr">    -87.19641796 </i>
    <i name="atom">   7870.63652434 </i>
    <i name="e_fr_energy">    -73.43454362 </i>
    <i name="e_wo_entrp">    -73.41402837 </i>
    <i name="e_0_energy">    -73.42941481 </i>
   </energy>
  </scstep>
  <structure>
   <crystal>
    <varray name="basis" >
     <v>       3.98960000       0.00000000       0.00000000 </v>
     <v>       0.00000000       3.98960000       0.00000000 </v>
     <v>       0.00000000       0.00000000      15.95840000 </v>
    </varray>
    <i name="volume">    254.00838718 </i>
    <varray name="rec_basis" >
     <v>       0.25065169       0.00000000       0.00000000 </v>
     <v>       0.00000000       0.25065169       0.00000000 </v>
     <v>       0.00000000       0.00000000       0.06266292 </v>
    </varray>
   </crystal>
   <varray name="positions" >
    <v>       0.00000000       0.00000000       0.00000000 </v>
    <v>       0.50000000       0.50000000       0.00000000 </v>
    <v>       0.00000000       0.50000000       0.12500000 </v>
    <v>       0.50000000       0.00000000       0.12500000 </v>
    <v>       0.00000000       0.00000000       0.24907278 </v>
    <v>       0.50000000       0.50000000       0.25061634 </v>
    <v>       0.00000000       0.50000000       0.37373798 </v>
    <v>       0.50000000       0.00000000       0.37373798 </v>
    <v>       0.00000000       0.00000000       0.50244235 </v>
    <v>       0.50000000       0.50000000       0.49398162 </v>
    <v>       0.00000000       0.00000000       0.61932512 </v>
    <v>       0.00000000       0.00000000       0.68982235 </v>
   </varray>
  </structure>
  <varray name="forces" >
   <v>       0.00000000       0.00000000       0.48567255 </v>
   <v>       0.00000000       0.00000000       0.41111490 </v>
   <v>       0.00000000       0.00000000      -0.25965960 </v>
   <v>       0.00000000       0.00000000      -0.25965960 </v>
   <v>       0.00000000       0.00000000      -0.37962112 </v>
   <v>       0.00000000       0.00000000      -0.06994643 </v>
   <v>       0.00000000       0.00000000      -0.01974731 </v>
   <v>       0.00000000       0.00000000      -0.01974731 </v>
   <v>       0.00000000       0.00000000       0.74437450 </v>
   <v>       0.00000000       0.00000000      -0.38860029 </v>
   <v>       0.00000000       0.00000000      -4.33090382 </v>
   <v>       0.00000000       0.00000000       4.08672352 </v>
  </varray>
  <varray name="stress" >
   <v>     -49.98600902       0.00000000       0.00000000 </v>
   <v>       0.00000000     -49.98600902       0.00000000 </v>
   <v>       0.00000000       0.00000000      11.93483766 </v>
  </varray>
  <energy>
   <i name="e_fr_energy">    -73.43454362 </i>
   <i name="e_wo_entrp">    -73.42941481 </i>
   <i name="e_0_energy">     -0.02051526 </i>
  </energy>
  <time name="totalsc">   70.54   71.31</time>
 </calculation>
 <calculation>
  <scstep>
   <time name="dav">    5.97    6.03</time>
   <time name="total">    6.68    6.74</time>
   <energy>
    <i name="alphaZ">    648.92586142 </i>
    <i name="ewald">   -357.07070328 </i>
    <i name="hartreedc">  -8480.22888853 </i>
    <i name="XCdc">     72.06111230 </i>
    <i name="pawpsdc">   6290.01744748 </i>
    <i name="pawaedc">  -6033.69561479 </i>
    <i name="eentropy">     -0.02038789 </i>
    <i name="bandstr">    -84.13266960 </i>
    <i name="atom">   7870.63652434 </i>
    <i name="e_fr_energy">    -73.50731855 </i>
    <i name="e_wo_entrp">    -73.48693066 </i>
    <i name="e_0_energy">    -73.50222158 </i>
   </energy>
  </scstep>
  <scstep>
   <time name="diag">    0.90    0.90</time>
   <time name="diis">    5.05    5.10</time>
   <time name="orth">    0.07    0.07</time>
   <time name="total">    6.72    6.79</time>
   <energy>
    <i name="e_fr_energy">    -73.50988791 </i>
    <i name="e_wo_entrp">    -73.48960125 </i>
    <i name="e_0_energy">    -73.50481625 </i>
   </energy>
  </scstep>
  <scstep>
   <time name="diag">    0.89    0.89</time>
   <time name="diis">    5.56    5.63</time>
   <time name="orth">    0.07    0.07</time>
   <time name="total">    7.22    7.31</time>
   <energy>
    <i name="e_fr_energy">    -73.51881553 </i>
    <i name="e_wo_entrp">    -73.49788926 </i>
    <i name="e_0_energy">    -73.51358396 </i>
   </energy>
  </scstep>
  <scstep>
   <time name="diag">    0.89    0.90</time>
   <time name="diis">    5.14    5.20</time>
   <time name="orth">    0.07    0.07</time>
   <time name="total">    6.80    6.88</time>
   <energy>
    <i name="e_fr_energy">    -73.50770925 </i>
    <i name="e_wo_entrp">    -73.48729201 </i>
    <i name="e_0_energy">    -73.50260494 </i>
   </energy>
  </scstep>
  <scstep>
   <time name="diag">    0.87    0.88</time>
   <time name="diis">    4.96    5.02</time>
   <time name="orth">    0.07    0.07</time>
   <time name="total">    6.60    6.68</time>
   <energy>
    <i name="e_fr_energy">    -73.50622921 </i>
    <i name="e_wo_entrp">    -73.48554364 </i>
    <i name="e_0_energy">    -73.50105782 </i>
   </energy>
  </scstep>
  <scstep>
   <time name="diag">    0.90    0.91</time>
   <time name="diis">    4.48    4.53</time>
   <time name="orth">    0.07    0.07</time>
   <time name="total">    6.14    6.22</time>
   <energy>
    <i name="e_fr_energy">    -73.50592823 </i>
    <i name="e_wo_entrp">    -73.48557465 </i>
    <i name="e_0_energy">    -73.50083983 </i>
   </energy>
  </scstep>
  <scstep>
   <time name="diag">    0.87    0.88</time>
   <time name="diis">    3.40    3.44</time>
   <time name="orth">    0.07    0.07</time>
   <time name="total">    5.05    5.11</time>
   <energy>
    <i name="e_fr_energy">    -73.50579695 </i>
    <i name="e_wo_entrp">    -73.48508627 </i>
    <i name="e_0_energy">    -73.50061928 </i>
   </energy>
  </scstep>
  <scstep>
   <time name="diag">    0.86    0.87</time>
   <time name="diis">    2.91    2.94</time>
   <time name="orth">    0.07    0.07</time>
   <time name="total">    4.55    4.60</time>
   <energy>
    <i name="e_fr_energy">    -73.50563677 </i>
    <i name="e_wo_entrp">    -73.48505679 </i>
    <i name="e_0_energy">    -73.50049178 </i>
   </energy>
  </scstep>
  <scstep>
   <time name="diag">    0.84    0.85</time>
   <time name="diis">    2.87    2.90</time>
   <time name="orth">    0.07    0.07</time>
   <time name="total">    4.12    4.17</time>
   <energy>
    <i name="alphaZ">    648.92586142 </i>
    <i name="ewald">   -357.07070328 </i>
    <i name="hartreedc">  -8475.78263156 </i>
    <i name="XCdc">     71.98628258 </i>
    <i name="pawpsdc">   6282.78529516 </i>
    <i name="pawaedc">  -6026.48334383 </i>
    <i name="eentropy">     -0.02055376 </i>
    <i name="bandstr">    -88.48234553 </i>
    <i name="atom">   7870.63652434 </i>
    <i name="e_fr_energy">    -73.50561446 </i>
    <i name="e_wo_entrp">    -73.48506070 </i>
    <i name="e_0_energy">    -73.50047602 </i>
   </energy>
  </scstep>
  <structure>
   <crystal>
    <varray name="basis" >
     <v>       3.98960000       0.00000000       0.00000000 </v>
     <v>       0.00000000       3.98960000       0.00000000 </v>
     <v>       0.00000000       0.00000000      15.95840000 </v>
    </varray>
    <i name="volume">    254.00838718 </i>
    <varray name="rec_basis" >
     <v>       0.25065169       0.00000000       0.00000000 </v>
     <v>       0.00000000       0.25065169       0.00000000 </v>
     <v>       0.00000000       0.00000000       0.06266292 </v>
    </varray>
   </crystal>
   <varray name="positions" >
    <v>       0.00000000       0.00000000       0.00000000 </v>
    <v>       0.50000000       0.50000000       0.00000000 </v>
    <v>       0.00000000       0.50000000       0.12500000 </v>
    <v>       0.50000000       0.00000000       0.12500000 </v>
    <v>       0.00000000       0.00000000       0.24925302 </v>
    <v>       0.50000000       0.50000000       0.25066405 </v>
    <v>       0.00000000       0.50000000       0.37366064 </v>
    <v>       0.50000000       0.00000000       0.37366064 </v>
    <v>       0.00000000       0.00000000       0.50304883 </v>
    <v>       0.50000000       0.50000000       0.49418582 </v>
    <v>       0.00000000       0.00000000       0.61792712 </v>
    <v>       0.00000000       0.00000000       0.69050376 </v>
   </varray>
  </structure>
  <varray name="forces" >
   <v>       0.00000000       0.00000000       0.48203989 </v>
   <v>       0.00000000       0.00000000       0.41022571 </v>
   <v>       0.00000000       0.00000000      -0.25046671 </v>
   <v>       0.00000000       0.00000000      -0.25046671 </v>
   <v>       0.00000000       0.00000000      -0.42230824 </v>
   <v>       0.00000000       0.00000000      -0.08902852 </v>
   <v>       0.00000000       0.00000000       0.03097715 </v>
   <v>       0.00000000       0.00000000       0.03097715 </v>
   <v>       0.00000000       0.00000000       0.07992328 </v>
   <v>       0.00000000       0.00000000      -0.41665604 </v>
   <v>       0.00000000       0.00000000       0.06859511 </v>
   <v>       0.00000000       0.00000000       0.32618796 </v>
  </varray>
  <varray name="stress" >
   <v>     -50.63366459       0.00000000       0.00000000 </v>
   <v>       0.00000000     -50.63366459       0.00000000 </v>
   <v>       0.00000000       0.00000000      -8.56746407 </v>
  </varray>
  <energy>
   <i name="e_fr_energy">    -73.50561446 </i>
   <i name="e_wo_entrp">    -73.50047602 </i>
   <i name="e_0_energy">     -0.02055376 </i>
  </energy>
  <time name="totalsc">   65.57   66.32</time>
 </calculation>
 <calculation>
  <scstep>
   <time name="dav">    6.14    6.21</time>
   <time name="total">    6.85    6.92</time>
   <energy>
    <i name="alphaZ">    648.92586142 </i>
    <i name="ewald">   -354.58748142 </i>
    <i name="hartreedc">  -8478.26282419 </i>
    <i name="XCdc">     71.98523319 </i>
    <i name="pawpsdc">   6282.90482951 </i>
    <i name="pawaedc">  -6026.60248008 </i>
    <i name="eentropy">     -0.02024124 </i>
    <i name="bandstr">    -88.49020322 </i>
    <i name="atom">   7870.63652434 </i>
    <i name="e_fr_energy">    -73.51078167 </i>
    <i name="e_wo_entrp">    -73.49054043 </i>
    <i name="e_0_energy">    -73.50572136 </i>
   </energy>
  </scstep>
  <scstep>
   <time name="diag">    0.83    0.84</time>
   <time name="diis">    4.94    4.98</time>
   <time name="orth">    0.07    0.07</time>
   <time name="total">    6.54    6.60</time>
   <energy>
    <i name="e_fr_energy">    -73.51231498 </i>
    <i name="e_wo_entrp">    -73.49202384 </i>
    <i name="e_0_energy">    -73.50724220 </i>
   </energy>
  </scstep>
  <scstep>
   <time name="diag">    0.85    0.86</time>
   <time name="diis">    4.35    4.41</time>
   <time name="orth">    0.07    0.07</time>
   <time name="total">    5.97    6.04</time>
   <energy>
    <i name="e_fr_energy">    -73.51153859 </i>
    <i name="e_wo_entrp">    -73.49105999 </i>
    <i name="e_0_energy">    -73.50641894 </i>
   </energy>
  </scstep>
  <scstep>
   <time name="diag">    0.89    0.90</time>
   <time name="diis">    3.18    3.21</time>
   <time name="orth">    0.07    0.07</time>
   <time name="total">    4.86    4.91</time>
   <energy>
    <i name="e_fr_energy">    -73.51139631 </i>
    <i name="e_wo_entrp">    -73.49119053 </i>
    <i name="e_0_energy">    -73.50634487 </i>
   </energy>
  </scstep>
  <scstep>
   <time name="diag">    0.86    0.87</time>
   <time name="diis">    3.16    3.19</time>
   <time name="orth">    0.07    0.07</time>
   <time name="total">    4.42    4.47</time>
   <energy>
    <i name="alphaZ">    648.92586142 </i>
    <i name="ewald">   -354.58748142 </i>
    <i name="hartreedc">  -8478.16361689 </i>
    <i name="XCdc">     71.97988778 </i>
    <i name="pawpsdc">   6282.84591880 </i>
    <i name="pawaedc">  -6026.55036873 </i>
    <i name="eentropy">     -0.02034289 </i>
    <i name="bandstr">    -88.57771834 </i>
    <i name="atom">   7870.63652434 </i>
    <i name="e_fr_energy">    -73.51133592 </i>
    <i name="e_wo_entrp">    -73.49099303 </i>
    <i name="e_0_energy">    -73.50625020 </i>
   </energy>
  </scstep>
  <structure>
   <crystal>
    <varray name="basis" >
     <v>       3.98960000       0.00000000       0.00000000 </v>
     <v>       0.00000000       3.98960000       0.00000000 </v>
     <v>       0.00000000       0.00000000      15.95840000 </v>
    </varray>
    <i name="volume">    254.00838718 </i>
    <varray name="rec_basis" >
     <v>       0.25065169       0.00000000       0.00000000 </v>
     <v>       0.00000000       0.25065169       0.00000000 </v>
     <v>       0.00000000       0.00000000       0.06266292 </v>
    </varray>
   </crystal>
   <varray name="positions" >
    <v>       0.00000000       0.00000000       0.00000000 </v>
    <v>       0.50000000       0.50000000       0.00000000 </v>
    <v>       0.00000000       0.50000000       0.12500000 </v>
    <v>       0.50000000       0.00000000       0.12500000 </v>
    <v>       0.00000000       0.00000000       0.24890185 </v>
    <v>       0.50000000       0.50000000       0.25058926 </v>
    <v>       0.00000000       0.50000000       0.37369136 </v>
    <v>       0.50000000       0.00000000       0.37369136 </v>
    <v>       0.00000000       0.00000000       0.50306573 </v>
    <v>       0.50000000       0.50000000       0.49383731 </v>
    <v>       0.00000000       0.00000000       0.61809006 </v>
    <v>       0.00000000       0.00000000       0.69071151 </v>
   </varray>
  </structure>
  <varray name="forces" >
   <v>       0.00000000       0.00000000       0.48423228 </v>
   <v>       0.00000000       0.00000000       0.40789487 </v>
   <v>       0.00000000       0.00000000      -0.26909777 </v>
   <v>       0.00000000       0.00000000      -0.26909777 </v>
   <v>       0.00000000       0.00000000      -0.35461332 </v>
   <v>       0.00000000       0.00000000      -0.07090964 </v>
   <v>       0.00000000       0.00000000      -0.01746793 </v>
   <v>       0.00000000       0.00000000      -0.01746793 </v>
   <v>       0.00000000       0.00000000       0.14227101 </v>
   <v>       0.00000000       0.00000000      -0.37119646 </v>
   <v>       0.00000000       0.00000000       0.08353539 </v>
   <v>       0.00000000       0.00000000       0.25191729 </v>
  </varray>
  <varray name="stress" >
   <v>     -50.12978674       0.00000000       0.00000000 </v>
   <v>       0.00000000     -50.12978674       0.00000000 </v>
   <v>       0.00000000       0.00000000      -9.35747314 </v>
  </varray>
  <energy>
   <i name="e_fr_energy">    -73.51133592 </i>
   <i name="e_wo_entrp">    -73.50625020 </i>
   <i name="e_0_energy">     -0.02034289 </i>
  </energy>
  <time name="totalsc">   40.70   41.12</time>
 </calculation>
 <calculation>
  <scstep>
   <time name="dav">    6.39    6.44</time>
   <time name="total">    7.14    7.19</time>
   <energy>
    <i name="alphaZ">    648.92586142 </i>
    <i name="ewald">   -347.01493817 </i>
    <i name="hartreedc">  -8485.98960617 </i>
    <i name="XCdc">     71.98425211 </i>
    <i name="pawpsdc">   6282.83556844 </i>
    <i name="pawaedc">  -6026.54115373 </i>
    <i name="eentropy">     -0.01923277 </i>
    <i name="bandstr">    -88.33560997 </i>
    <i name="atom">   7870.63652434 </i>
    <i name="e_fr_energy">    -73.51833449 </i>
    <i name="e_wo_entrp">    -73.49910171 </i>
    <i name="e_0_energy">    -73.51352629 </i>
   </energy>
  </scstep>
  <scstep>
   <time name="diag">    0.86    0.87</time>
   <time name="diis">    5.53    5.59</time>
   <time name="orth">    0.07    0.07</time>
   <time name="total">    7.17    7.24</time>
   <energy>
    <i name="e_fr_energy">    -73.53365878 </i>
    <i name="e_wo_entrp">    -73.51432796 </i>
    <i name="e_0_energy">    -73.52882607 </i>
   </energy>
  </scstep>
  <scstep>
   <time name="diag">    0.92    0.92</time>
   <time name="diis">    7.26    7.33</time>
   <time name="orth">    0.07    0.07</time>
   <time name="total">    9.07    9.17</time>
   <energy>
    <i name="e_fr_energy">    -73.52591669 </i>
    <i name="e_wo_entrp">    -73.50574792 </i>
    <i name="e_0_energy">    -73.52087450 </i>
   </energy>
  </scstep>
  <scstep>
   <time name="diag">    0.89    0.89</time>
   <time name="diis">    5.56    5.63</time>
   <time name="orth">    0.07    0.07</time>
   <time name="total">    7.22    7.30</time>
   <energy>
    <i name="e_fr_energy">    -73.52441575 </i>
    <i name="e_wo_entrp">    -73.50529652 </i>
    <i name="e_0_energy">    -73.51963594 </i>
   </energy>
  </scstep>
  <scstep>
   <time name="diag">    0.89    0.90</time>
   <time name="diis">    4.57    4.61</time>
   <time name="orth">    0.07    0.07</time>
   <time name="total">    6.30    6.37</time>
   <energy>
    <i name="e_fr_energy">    -73.52380581 </i>
    <i name="e_wo_entrp">    -73.50420152 </i>
    <i name="e_0_energy">    -73.51890474 </i>
   </energy>
  </scstep>
  <scstep>
   <time name="diag">    0.94    0.94</time>
   <time name="diis">    4.47    4.51</time>
   <time name="orth">    0.07    0.07</time>
   <time name="total">    6.21    6.27</time>
   <energy>
    <i name="e_fr_energy">    -73.52362039 </i>
    <i name="e_wo_entrp">    -73.50395452 </i>
    <i name="e_0_energy">    -73.51870392 </i>
   </energy>
  </scstep>
  <scstep>
   <time name="diag">    0.85    0.86</time>
   <time name="diis">    4.59    4.64</time>
   <time name="orth">    0.07    0.07</time>
   <time name="total">    5.84    5.91</time>
   <energy>
    <i name="alphaZ">    648.92586142 </i>
    <i name="ewald">   -347.01493817 </i>
    <i name="hartreedc">  -8485.72429327 </i>
    <i name="XCdc">     71.97228807 </i>
    <i name="pawpsdc">   6282.42184765 </i>
    <i name="pawaedc">  -6026.15474257 </i>
    <i name="eentropy">     -0.01961894 </i>
    <i name="bandstr">    -88.56649042 </i>
    <i name="atom">   7870.63652434 </i>
    <i name="e_fr_energy">    -73.52356187 </i>
    <i name="e_wo_entrp">    -73.50394294 </i>
    <i name="e_0_energy">    -73.51865714 </i>
   </energy>
  </scstep>
  <structure>
   <crystal>
    <varray name="basis" >
     <v>       3.98960000       0.00000000       0.00000000 </v>
     <v>       0.00000000       3.98960000       0.00000000 </v>
     <v>       0.00000000       0.00000000      15.95840000 </v>
    </varray>
    <i name="volume">    254.00838718 </i>
    <varray name="rec_basis" >
     <v>       0.25065169       0.00000000       0.00000000 </v>
     <v>       0.00000000       0.25065169       0.00000000 </v>
     <v>       0.00000000       0.00000000       0.06266292 </v>
    </varray>
   </crystal>
   <varray name="positions" >
    <v>       0.00000000       0.00000000       0.00000000 </v>
    <v>       0.50000000       0.50000000       0.00000000 </v>
    <v>       0.00000000       0.50000000       0.12500000 </v>
    <v>       0.50000000       0.00000000       0.12500000 </v>
    <v>       0.00000000       0.00000000       0.24784833 </v>
    <v>       0.50000000       0.50000000       0.25036491 </v>
    <v>       0.00000000       0.50000000       0.37378352 </v>
    <v>       0.50000000       0.00000000       0.37378352 </v>
    <v>       0.00000000       0.00000000       0.50311642 </v>
    <v>       0.50000000       0.50000000       0.49279177 </v>
    <v>       0.00000000       0.00000000       0.61857888 </v>
    <v>       0.00000000       0.00000000       0.69133477 </v>
   </varray>
  </structure>
  <varray name="forces" >
   <v>       0.00000000       0.00000000       0.49152008 </v>
   <v>       0.00000000       0.00000000       0.39780697 </v>
   <v>       0.00000000       0.00000000      -0.33027986 </v>
   <v>       0.00000000       0.00000000      -0.33027986 </v>
   <v>       0.00000000       0.00000000      -0.19897212 </v>
   <v>       0.00000000       0.00000000      -0.01103652 </v>
   <v>       0.00000000       0.00000000      -0.12275249 </v>
   <v>       0.00000000       0.00000000      -0.12275249 </v>
   <v>       0.00000000       0.00000000       0.34482087 </v>
   <v>       0.00000000       0.00000000      -0.27336814 </v>
[...]
       <r>    4.0044    0.0000 </r>
       <r>    4.4920    0.0000 </r>
       <r>    5.3334    0.0000 </r>
       <r>    5.4767    0.0000 </r>
       <r>    5.9367    0.0000 </r>
       <r>    6.4155    0.0000 </r>
       <r>    6.9747    0.0000 </r>
      </set>
      <set comment="kpoint 15">
       <r>  -20.6510    1.0000 </r>
       <r>   -6.9236    1.0000 </r>
       <r>   -4.3867    1.0000 </r>
       <r>   -3.8128    1.0000 </r>
       <r>   -3.7914    1.0000 </r>
       <r>   -3.5840    1.0000 </r>
       <r>   -3.5166    1.0000 </r>
       <r>   -3.4909    1.0000 </r>
       <r>   -3.4607    1.0000 </r>
       <r>   -2.9325    1.0000 </r>
       <r>   -2.7993    1.0000 </r>
       <r>   -2.5081    1.0000 </r>
       <r>   -2.4202    1.0000 </r>
       <r>   -1.9086    1.0000 </r>
       <r>   -1.7823    1.0000 </r>
       <r>   -1.0701    1.0000 </r>
       <r>   -1.0686    1.0000 </r>
       <r>   -0.9174    1.0000 </r>
       <r>   -0.9132    1.0000 </r>
       <r>   -0.8275    1.0000 </r>
       <r>   -0.7025    1.0000 </r>
       <r>   -0.6261    1.0000 </r>
       <r>   -0.5778    1.0000 </r>
       <r>   -0.5340    1.0000 </r>
       <r>   -0.4243    1.0000 </r>
       <r>   -0.3992    1.0000 </r>
       <r>   -0.3534    1.0000 </r>
       <r>   -0.3056    1.0000 </r>
       <r>   -0.2931    1.0000 </r>
       <r>   -0.1116    1.0000 </r>
       <r>    0.0068    1.0000 </r>
       <r>    0.0580    1.0000 </r>
       <r>    0.1338    1.0000 </r>
       <r>    0.2705    1.0000 </r>
       <r>    0.4009    1.0000 </r>
       <r>    0.4077    1.0000 </r>
       <r>    0.4538    1.0000 </r>
       <r>    0.6450    1.0000 </r>
       <r>    1.0308    1.0000 </r>
       <r>    1.1138    1.0000 </r>
       <r>    1.1191    1.0000 </r>
       <r>    1.4419    1.0000 </r>
       <r>    1.5153    1.0000 </r>
       <r>    1.6410    1.0000 </r>
       <r>    1.7799    1.0000 </r>
       <r>    2.2247    1.0000 </r>
       <r>    2.3115    1.0000 </r>
       <r>    2.3191    1.0000 </r>
       <r>    2.4230    0.9996 </r>
       <r>    2.5617    0.9959 </r>
       <r>    2.5920    0.9951 </r>
       <r>    2.8157    1.0516 </r>
       <r>    2.8817    0.9946 </r>
       <r>    2.8989    0.9563 </r>
       <r>    2.9870    0.5966 </r>
       <r>    3.2824   -0.0203 </r>
       <r>    3.6776    0.0000 </r>
       <r>    3.8210    0.0000 </r>
       <r>    3.8964    0.0000 </r>
       <r>    4.3940    0.0000 </r>
       <r>    4.4403    0.0000 </r>
       <r>    4.7514    0.0000 </r>
       <r>    4.7906    0.0000 </r>
       <r>    5.0410    0.0000 </r>
       <r>    5.6003    0.0000 </r>
       <r>    6.8904    0.0000 </r>
      </set>
     </set>
    </set>
   </array>
  </eigenvalues>
  <separator name="orbital magnetization" >
   <v name="MAGDIPOLOUT">      0.00000000      0.00000000      0.00000000</v>
  </separator>
  <dos>
   <i name="efermi">      3.00537803 </i>
   <total>
    <array>
     <dimension dim="1">gridpoints</dimension>
     <dimension dim="2">spin</dimension>
     <field>energy</field>
     <field>total</field>
     <field>integrated</field>
     <set>
      <set comment="spin 1">
       <r>   -22.6702     0.0000     0.0000 </r>
       <r>   -22.5610     0.0000     0.0000 </r>
       <r>   -22.4517     0.0000     0.0000 </r>
       <r>   -22.3425     0.0000     0.0000 </r>
       <r>   -22.2332     0.0000     0.0000 </r>
       <r>   -22.1240     0.0000     0.0000 </r>
       <r>   -22.0148     0.0000     0.0000 </r>
       <r>   -21.9055     0.0000     0.0000 </r>
       <r>   -21.7963     0.0000     0.0000 </r>
       <r>   -21.6870     0.0000     0.0000 </r>
       <r>   -21.5778     0.0000     0.0000 </r>
       <r>   -21.4685     0.0000     0.0000 </r>
       <r>   -21.3593     0.0004     0.0000 </r>
       <r>   -21.2501     0.0065     0.0008 </r>
       <r>   -21.1408     0.0432     0.0055 </r>
       <r>   -21.0316     0.0203     0.0077 </r>
       <r>   -20.9223    -0.5697    -0.0546 </r>
       <r>   -20.8131    -0.1408    -0.0699 </r>
       <r>   -20.7038     5.7333     0.5564 </r>
       <r>   -20.5946     9.9101     1.6390 </r>
       <r>   -20.4854     4.1956     2.0973 </r>
       <r>   -20.3761    -0.5758     2.0344 </r>
       <r>   -20.2669    -0.4034     1.9904 </r>
       <r>   -20.1576     0.0517     1.9960 </r>
       <r>   -20.0484     0.0324     1.9995 </r>
       <r>   -19.9391     0.0039     2.0000 </r>
       <r>   -19.8299     0.0002     2.0000 </r>
       <r>   -19.7206     0.0000     2.0000 </r>
       <r>   -19.6114     0.0000     2.0000 </r>
       <r>   -19.5022     0.0000     2.0000 </r>
       <r>   -19.3929     0.0000     2.0000 </r>
       <r>   -19.2837     0.0000     2.0000 </r>
       <r>   -19.1744     0.0000     2.0000 </r>
       <r>   -19.0652     0.0000     2.0000 </r>
       <r>   -18.9559     0.0000     2.0000 </r>
       <r>   -18.8467     0.0000     2.0000 </r>
       <r>   -18.7375     0.0000     2.0000 </r>
       <r>   -18.6282     0.0000     2.0000 </r>
       <r>   -18.5190     0.0000     2.0000 </r>
       <r>   -18.4097     0.0000     2.0000 </r>
       <r>   -18.3005     0.0000     2.0000 </r>
       <r>   -18.1912     0.0000     2.0000 </r>
       <r>   -18.0820     0.0000     2.0000 </r>
       <r>   -17.9728     0.0000     2.0000 </r>
       <r>   -17.8635     0.0000     2.0000 </r>
       <r>   -17.7543     0.0000     2.0000 </r>
       <r>   -17.6450     0.0000     2.0000 </r>
       <r>   -17.5358     0.0000     2.0000 </r>
       <r>   -17.4265     0.0000     2.0000 </r>
       <r>   -17.3173     0.0000     2.0000 </r>
       <r>   -17.2081     0.0000     2.0000 </r>
       <r>   -17.0988     0.0000     2.0000 </r>
       <r>   -16.9896     0.0000     2.0000 </r>
       <r>   -16.8803     0.0000     2.0000 </r>
       <r>   -16.7711     0.0000     2.0000 </r>
       <r>   -16.6618     0.0000     2.0000 </r>
       <r>   -16.5526     0.0000     2.0000 </r>
       <r>   -16.4433     0.0000     2.0000 </r>
       <r>   -16.3341     0.0000     2.0000 </r>
       <r>   -16.2249     0.0000     2.0000 </r>
       <r>   -16.1156     0.0000     2.0000 </r>
       <r>   -16.0064     0.0000     2.0000 </r>
       <r>   -15.8971     0.0000     2.0000 </r>
       <r>   -15.7879     0.0000     2.0000 </r>
       <r>   -15.6786     0.0000     2.0000 </r>
       <r>   -15.5694     0.0000     2.0000 </r>
       <r>   -15.4602     0.0000     2.0000 </r>
       <r>   -15.3509     0.0000     2.0000 </r>
       <r>   -15.2417     0.0000     2.0000 </r>
       <r>   -15.1324     0.0000     2.0000 </r>
       <r>   -15.0232     0.0000     2.0000 </r>
       <r>   -14.9139     0.0000     2.0000 </r>
       <r>   -14.8047     0.0000     2.0000 </r>
       <r>   -14.6955     0.0000     2.0000 </r>
       <r>   -14.5862     0.0000     2.0000 </r>
       <r>   -14.4770     0.0000     2.0000 </r>
       <r>   -14.3677     0.0000     2.0000 </r>
       <r>   -14.2585     0.0000     2.0000 </r>
       <r>   -14.1492     0.0000     2.0000 </r>
       <r>   -14.0400     0.0000     2.0000 </r>
       <r>   -13.9307     0.0000     2.0000 </r>
       <r>   -13.8215     0.0000     2.0000 </r>
       <r>   -13.7123     0.0000     2.0000 </r>
       <r>   -13.6030     0.0000     2.0000 </r>
       <r>   -13.4938     0.0000     2.0000 </r>
       <r>   -13.3845     0.0000     2.0000 </r>
       <r>   -13.2753     0.0000     2.0000 </r>
       <r>   -13.1660     0.0000     2.0000 </r>
       <r>   -13.0568     0.0000     2.0000 </r>
       <r>   -12.9476     0.0000     2.0000 </r>
       <r>   -12.8383     0.0000     2.0000 </r>
       <r>   -12.7291     0.0000     2.0000 </r>
       <r>   -12.6198     0.0000     2.0000 </r>
       <r>   -12.5106     0.0000     2.0000 </r>
       <r>   -12.4013     0.0000     2.0000 </r>
       <r>   -12.2921     0.0000     2.0000 </r>
       <r>   -12.1829     0.0000     2.0000 </r>
       <r>   -12.0736     0.0000     2.0000 </r>
       <r>   -11.9644     0.0000     2.0000 </r>
       <r>   -11.8551     0.0000     2.0000 </r>
       <r>   -11.7459     0.0000     2.0000 </r>
       <r>   -11.6366     0.0000     2.0000 </r>
       <r>   -11.5274     0.0000     2.0000 </r>
       <r>   -11.4182     0.0000     2.0000 </r>
       <r>   -11.3089     0.0000     2.0000 </r>
       <r>   -11.1997     0.0000     2.0000 </r>
       <r>   -11.0904     0.0000     2.0000 </r>
       <r>   -10.9812     0.0000     2.0000 </r>
       <r>   -10.8719     0.0000     2.0000 </r>
       <r>   -10.7627     0.0000     2.0000 </r>
       <r>   -10.6534     0.0000     2.0000 </r>
       <r>   -10.5442     0.0000     2.0000 </r>
       <r>   -10.4350     0.0000     2.0000 </r>
       <r>   -10.3257     0.0000     2.0000 </r>
       <r>   -10.2165     0.0000     2.0000 </r>
       <r>   -10.1072     0.0000     2.0000 </r>
       <r>    -9.9980     0.0000     2.0000 </r>
       <r>    -9.8887     0.0000     2.0000 </r>
       <r>    -9.7795     0.0000     2.0000 </r>
       <r>    -9.6703     0.0000     2.0000 </r>
       <r>    -9.5610     0.0000     2.0000 </r>
       <r>    -9.4518     0.0000     2.0000 </r>
       <r>    -9.3425     0.0000     2.0000 </r>
       <r>    -9.2333     0.0000     2.0000 </r>
       <r>    -9.1240     0.0000     2.0000 </r>
       <r>    -9.0148     0.0000     2.0000 </r>
       <r>    -8.9056     0.0000     2.0000 </r>
       <r>    -8.7963     0.0000     2.0000 </r>
       <r>    -8.6871     0.0000     2.0000 </r>
       <r>    -8.5778     0.0000     2.0000 </r>
       <r>    -8.4686     0.0000     2.0000 </r>
       <r>    -8.3593     0.0000     2.0000 </r>
       <r>    -8.2501     0.0000     2.0000 </r>
       <r>    -8.1408     0.0000     2.0000 </r>
       <r>    -8.0316     0.0000     2.0000 </r>
       <r>    -7.9224     0.0000     2.0000 </r>
       <r>    -7.8131     0.0001     2.0000 </r>
       <r>    -7.7039     0.0021     2.0002 </r>
       <r>    -7.5946     0.0140     2.0018 </r>
       <r>    -7.4854     0.0259     2.0046 </r>
       <r>    -7.3761    -0.1076     1.9929 </r>
       <r>    -7.2669    -0.3133     1.9586 </r>
       <r>    -7.1577     1.1258     2.0816 </r>
       <r>    -7.0484     5.6917     2.7034 </r>
       <r>    -6.9392     8.1848     3.5975 </r>
       <r>    -6.8299     4.0669     4.0418 </r>
       <r>    -6.7207    -0.0366     4.0378 </r>
       <r>    -6.6114    -0.3880     3.9954 </r>
       <r>    -6.5022     0.0051     3.9960 </r>
       <r>    -6.3930     0.0208     3.9983 </r>
       <r>    -6.2837     0.0020     3.9985 </r>
       <r>    -6.1745     0.1442     4.0142 </r>
       <r>    -6.0652     0.4962     4.0684 </r>
       <r>    -5.9560     0.7525     4.1506 </r>
       <r>    -5.8467     0.5185     4.2073 </r>
       <r>    -5.7375     0.1675     4.2256 </r>
       <r>    -5.6282     0.5420     4.2848 </r>
       <r>    -5.5190     1.1929     4.4151 </r>
       <r>    -5.4098     0.8829     4.5116 </r>
       <r>    -5.3005     0.1301     4.5258 </r>
       <r>    -5.1913     0.1334     4.5404 </r>
       <r>    -5.0820     0.4898     4.5939 </r>
       <r>    -4.9728     1.1453     4.7190 </r>
       <r>    -4.8635     1.9333     4.9302 </r>
       <r>    -4.7543     1.5174     5.0959 </r>
       <r>    -4.6451     1.3021     5.2382 </r>
       <r>    -4.5358     3.3903     5.6086 </r>
       <r>    -4.4266     6.8332     6.3550 </r>
       <r>    -4.3173     6.6484     7.0813 </r>
       <r>    -4.2081     3.1952     7.4304 </r>
       <r>    -4.0988     2.4251     7.6953 </r>
       <r>    -3.9896     2.3786     7.9552 </r>
       <r>    -3.8804     2.6957     8.2497 </r>
       <r>    -3.7711     7.2411     9.0407 </r>
       <r>    -3.6619    11.6122    10.3093 </r>
       <r>    -3.5526    13.4289    11.7763 </r>
       <r>    -3.4434    14.1509    13.3222 </r>
       <r>    -3.3341     9.9921    14.4137 </r>
       <r>    -3.2249     5.5418    15.0192 </r>
       <r>    -3.1157     7.0002    15.7839 </r>
       <r>    -3.0064     9.7907    16.8534 </r>
       <r>    -2.8972    10.3354    17.9825 </r>
       <r>    -2.7879    11.7644    19.2677 </r>
       <r>    -2.6787    12.8237    20.6686 </r>
       <r>    -2.5694    11.8025    21.9580 </r>
       <r>    -2.4602    12.9873    23.3767 </r>
       <r>    -2.3509    14.8820    25.0025 </r>
       <r>    -2.2417    12.3721    26.3541 </r>
       <r>    -2.1325    10.3077    27.4801 </r>
       <r>    -2.0232    13.4836    28.9531 </r>
       <r>    -1.9140    16.1237    30.7145 </r>
       <r>    -1.8047    14.2341    32.2695 </r>
       <r>    -1.6955    11.8087    33.5595 </r>
       <r>    -1.5862    11.1541    34.7780 </r>
       <r>    -1.4770    11.0525    35.9854 </r>
       <r>    -1.3678    12.3173    37.3310 </r>
       <r>    -1.2585    13.2194    38.7752 </r>
       <r>    -1.1493    11.3331    40.0132 </r>
       <r>    -1.0400    13.1770    41.4527 </r>
       <r>    -0.9308    18.5210    43.4760 </r>
       <r>    -0.8215    18.6627    45.5148 </r>
       <r>    -0.7123    14.8986    47.1424 </r>
       <r>    -0.6031    12.4606    48.5036 </r>
       <r>    -0.4938    14.0774    50.0415 </r>
       <r>    -0.3846    19.9023    52.2157 </r>
       <r>    -0.2753    25.7442    55.0281 </r>
       <r>    -0.1661    26.1944    57.8896 </r>
       <r>    -0.0568    23.1467    60.4182 </r>
       <r>     0.0524    18.7897    62.4709 </r>
       <r>     0.1617    15.2409    64.1359 </r>
       <r>     0.2709    12.8491    65.5395 </r>
       <r>     0.3801    14.7405    67.1498 </r>
       <r>     0.4894    16.9626    69.0029 </r>
       <r>     0.5986    16.2472    70.7778 </r>
       <r>     0.7079    16.5825    72.5893 </r>
       <r>     0.8171    14.2965    74.1511 </r>
       <r>     0.9264    12.0172    75.4639 </r>
       <r>     1.0356    14.4209    77.0393 </r>
       <r>     1.1448    17.5779    78.9596 </r>
       <r>     1.2541    17.8215    80.9064 </r>
       <r>     1.3633    16.3476    82.6923 </r>
       <r>     1.4726    15.2897    84.3626 </r>
       <r>     1.5818    17.0407    86.2242 </r>
       <r>     1.6911    19.3214    88.3349 </r>
       <r>     1.8003    18.0100    90.3024 </r>
       <r>     1.9095    14.7580    91.9146 </r>
       <r>     2.0188    14.3346    93.4806 </r>
       <r>     2.1280    16.2007    95.2504 </r>
       <r>     2.2373    16.1096    97.0103 </r>
       <r>     2.3465    15.2140    98.6723 </r>
       <r>     2.4558    16.0665   100.4274 </r>
       <r>     2.5650    16.8294   102.2659 </r>
       <r>     2.6742    15.8790   104.0006 </r>
       <r>     2.7835    15.3623   105.6788 </r>
       <r>     2.8927    17.7228   107.6150 </r>
       <r>     3.0020    21.1588   109.9264 </r>
       <r>     3.1112    20.1732   112.1302 </r>
       <r>     3.2205    15.1017   113.7800 </r>
       <r>     3.3297     9.2072   114.7858 </r>
       <r>     3.4390     5.5826   115.3957 </r>
       <r>     3.5482     5.1300   115.9561 </r>
       <r>     3.6574     5.0153   116.5040 </r>
       <r>     3.7667     4.3854   116.9830 </r>
       <r>     3.8759     2.7896   117.2878 </r>
       <r>     3.9852     3.2153   117.6390 </r>
       <r>     4.0944     5.3713   118.2258 </r>
       <r>     4.2037     4.3158   118.6973 </r>
       <r>     4.3129     1.6906   118.8820 </r>
       <r>     4.4221     1.6979   119.0674 </r>
       <r>     4.5314     3.1660   119.4133 </r>
       <r>     4.6406     4.6863   119.9253 </r>
       <r>     4.7499     4.7305   120.4420 </r>
       <r>     4.8591     2.2479   120.6876 </r>
       <r>     4.9684     1.7469   120.8785 </r>
       <r>     5.0776     3.5782   121.2693 </r>
       <r>     5.1868     3.6272   121.6656 </r>
       <r>     5.2961     2.9837   121.9915 </r>
       <r>     5.4053     4.5329   122.4867 </r>
       <r>     5.5146     6.2604   123.1706 </r>
       <r>     5.6238     5.4482   123.7658 </r>
       <r>     5.7331     3.2552   124.1214 </r>
       <r>     5.8423     2.0740   124.3480 </r>
       <r>     5.9516     2.9690   124.6723 </r>
       <r>     6.0608     3.9031   125.0987 </r>
       <r>     6.1700     4.3488   125.5738 </r>
       <r>     6.2793     4.1736   126.0297 </r>
       <r>     6.3885     5.1973   126.5975 </r>
       <r>     6.4978     7.4271   127.4089 </r>
       <r>     6.6070     5.9504   128.0589 </r>
       <r>     6.7163     3.5919   128.4513 </r>
       <r>     6.8255     3.7732   128.8635 </r>
       <r>     6.9347     4.3491   129.3386 </r>
       <r>     7.0440     3.6385   129.7361 </r>
       <r>     7.1532     3.1605   130.0814 </r>
       <r>     7.2625     2.5869   130.3640 </r>
       <r>     7.3717     1.4660   130.5241 </r>
       <r>     7.4810     2.1218   130.7559 </r>
       <r>     7.5902     3.2027   131.1058 </r>
       <r>     7.6994     3.0378   131.4376 </r>
       <r>     7.8087     2.6804   131.7305 </r>
       <r>     7.9179     1.8832   131.9362 </r>
       <r>     8.0272     0.5443   131.9957 </r>
       <r>     8.1364    -0.0055   131.9951 </r>
       <r>     8.2457     0.0320   131.9986 </r>
       <r>     8.3549     0.0144   132.0001 </r>
       <r>     8.4641    -0.0025   131.9999 </r>
       <r>     8.5734     0.0006   131.9999 </r>
       <r>     8.6826     0.0006   132.0000 </r>
       <r>     8.7919     0.0001   132.0000 </r>
       <r>     8.9011     0.0000   132.0000 </r>
       <r>     9.0104     0.0000   132.0000 </r>
       <r>     9.1196     0.0000   132.0000 </r>
       <r>     9.2289     0.0000   132.0000 </r>
       <r>     9.3381     0.0000   132.0000 </r>
       <r>     9.4473     0.0000   132.0000 </r>
       <r>     9.5566     0.0000   132.0000 </r>
       <r>     9.6658     0.0000   132.0000 </r>
       <r>     9.7751     0.0000   132.0000 </r>
       <r>     9.8843     0.0000   132.0000 </r>
       <r>     9.9936     0.0000   132.0000 </r>
       <r>    10.1028     0.0000   132.0000 </r>
      </set>
     </set>
    </array>
   </total>
  </dos>
 </calculation>
 <structure name="finalpos" >
  <crystal>
   <varray name="basis" >
    <v>       3.98960000       0.00000000       0.00000000 </v>
    <v>       0.00000000       3.98960000       0.00000000 </v>
    <v>       0.00000000       0.00000000      15.95840000 </v>
   </varray>
   <i name="volume">    254.00838718 </i>
   <varray name="rec_basis" >
    <v>       0.25065169       0.00000000       0.00000000 </v>
    <v>       0.00000000       0.25065169       0.00000000 </v>
    <v>       0.00000000       0.00000000       0.06266292 </v>
   </varray>
  </crystal>
  <varray name="positions" >
   <v>       0.00000000       0.00000000       0.00000000 </v>
   <v>       0.50000000       0.50000000       0.00000000 </v>
   <v>       0.00000000       0.50000000       0.12500000 </v>
   <v>       0.50000000       0.00000000       0.12500000 </v>
   <v>       0.00000000       0.00000000       0.24611345 </v>
   <v>       0.50000000       0.50000000       0.25005719 </v>
   <v>       0.00000000       0.50000000       0.37264267 </v>
   <v>       0.50000000       0.00000000       0.37264267 </v>
   <v>       0.00000000       0.00000000       0.50489676 </v>
   <v>       0.50000000       0.50000000       0.49002017 </v>
   <v>       0.00000000       0.00000000       0.62021031 </v>
   <v>       0.00000000       0.00000000       0.69289585 </v>
  </varray>
  <varray name="selective"  type="logical" >
   <v type="logical" >  F  F  F </v>
   <v type="logical" >  F  F  F </v>
   <v type="logical" >  F  F  F </v>
   <v type="logical" >  F  F  F </v>
   <v type="logical" >  T  T  T </v>
   <v type="logical" >  T  T  T </v>
   <v type="logical" >  T  T  T </v>
   <v type="logical" >  T  T  T </v>
   <v type="logical" >  T  T  T </v>
   <v type="logical" >  T  T  T </v>
   <v type="logical" >  T  T  T </v>
   <v type="logical" >  T  T  T </v>
  </varray>
  <nose>
   <v>      -3.00000000       0.00000000       0.00010000       0.00010000 </v>
  </nose>
 </structure>
</modeling>
