# Water molecule animation

 ANIMSTEPS 4
 ATOMS 1
  8    0.0000  0.0000  0.0000     -0.0516  0.0000 -0.0399
  1    0.0000  0.0000  1.0000      0.0176  0.0000  0.0304
  1    0.9681  0.0000 -0.2503      0.0339  0.0000  0.0094
 ATOMS 2
  8   -0.1480  0.0000 -0.1146      0.0020  0.0000  0.0015
  1   -0.0468  0.0000  0.9134     -0.0069  0.0000  0.0069
  1    0.8726  0.0000 -0.2740      0.0049  0.0000 -0.0084
 ATOMS 3
  8   -0.1032  0.0000 -0.0799      0.0013  0.0000  0.0010
  1   -0.0319  0.0000  0.9591      0.0011  0.0000 -0.0028
  1    0.9205  0.0000 -0.2710     -0.0025  0.0000  0.0018
 ATOMS 4
  8   -0.1102  0.0000 -0.0853      0.0001  0.0000  0.0000
  1   -0.0345  0.0000  0.9503     -0.0000  0.0000 -0.0000
  1    0.9114  0.0000 -0.2714     -0.0000  0.0000 -0.0000
