
     Program CP v.5.1.1 (svn rev. 11353) starts on 12Feb2015 at 11:46:26 

     This program is part of the open-source Quantum ESPRESSO suite
     for quantum simulation of materials; please cite
         "P. Giannozzi et al., J. Phys.:Condens. Matter 21 395502 (2009);
          URL http://www.quantum-espresso.org", 
     in publications or presentations arising from this work. More details at
     http://www.quantum-espresso.org/quote

     Parallel version (MPI & OpenMP), running on     128 processor cores
     Number of MPI processes:               128
     Threads/MPI process:                     1
     R & G space division:  proc/nbgrp/npool/nimage =     128

   Dumping input parameters

     Waiting for input...
     Reading input from standard input

   Job Title: (H2O)32 Molecule: CP NVT MD with PBE0 at 300 K

     IMPORTANT: XC functional enforced from input :
     Exchange-correlation      = PBE0 ( 6  4  8  4 0 0)
     EXX-fraction              =        0.25
     Any further DFT definition will be discarded
     Please, verify this is what you really want



   Atomic Pseudopotentials Parameters
   ----------------------------------

   Reading pseudopotential for specie #  1 from file :
   ./O_HSCV_PBE-1.0.UPF
   file type is UPF v.1

   Reading pseudopotential for specie #  2 from file :
   ./H_HSCV_PBE-1.0.UPF
   file type is UPF v.1


   Main Simulation Parameters (from input)
   ---------------------------------------
   Restart Mode       =       1   restart        
   Number of MD Steps =    6000
   Print out every          100 MD Steps
   Reads from unit    =      50
   Writes to unit     =      50
   MD Simulation time step            =       2.00
   Electronic fictitious mass (emass) =     100.00
   emass cut-off                      =      10.00

   Simulation Cell Parameters (from input)
   external pressure       =            0.00 [KBar]
   wmass (calculated)      =        88654.67 [AU]
   ibrav =    1
   alat  =    18.66550000
   a1    =    18.66550000    0.00000000    0.00000000
   a2    =     0.00000000   18.66550000    0.00000000
   a3    =     0.00000000    0.00000000   18.66550000
 
   b1    =     0.05357478    0.00000000    0.00000000
   b2    =     0.00000000    0.05357478    0.00000000
   b3    =     0.00000000    0.00000000    0.05357478
   omega =    6503.07681696

   Energy Cut-offs
   ---------------
   Ecutwfc =   85.0 Ry,      Ecutrho =  340.0 Ry,      Ecuts =  340.0 Ry
   Gcutwfc =   27.4     ,    Gcutrho =   54.8          Gcuts =   54.8
   NOTA BENE: refg, mmx =   0.050000  8160
   Eigenvalues calculated without the kinetic term contribution
   Orthog. with lagrange multipliers : eps =   0.10E-07,  max =  20
   Electron dynamics with newton equations
   Electron dynamics : the temperature is not controlled

   Electronic states
   -----------------
   Number of Electron =   256, of States =   128
   Occupation numbers :
   2.00 2.00 2.00 2.00 2.00 2.00 2.00 2.00 2.00 2.00
   2.00 2.00 2.00 2.00 2.00 2.00 2.00 2.00 2.00 2.00
   2.00 2.00 2.00 2.00 2.00 2.00 2.00 2.00 2.00 2.00
   2.00 2.00 2.00 2.00 2.00 2.00 2.00 2.00 2.00 2.00
   2.00 2.00 2.00 2.00 2.00 2.00 2.00 2.00 2.00 2.00
   2.00 2.00 2.00 2.00 2.00 2.00 2.00 2.00 2.00 2.00
   2.00 2.00 2.00 2.00 2.00 2.00 2.00 2.00 2.00 2.00
   2.00 2.00 2.00 2.00 2.00 2.00 2.00 2.00 2.00 2.00
   2.00 2.00 2.00 2.00 2.00 2.00 2.00 2.00 2.00 2.00
   2.00 2.00 2.00 2.00 2.00 2.00 2.00 2.00 2.00 2.00
   2.00 2.00 2.00 2.00 2.00 2.00 2.00 2.00 2.00 2.00
   2.00 2.00 2.00 2.00 2.00 2.00 2.00 2.00 2.00 2.00
   2.00 2.00 2.00 2.00 2.00 2.00 2.00 2.00


   Exchange and correlations functionals
   -------------------------------------
     Exchange-correlation      = PBE0 ( 6  4  8  4 0 0)
     EXX-fraction              =        0.25


   Ions Simulation Parameters
   --------------------------
   Ions are allowed to move
   Ions dynamics with newton equations
   the temperature is computed for   285 degrees of freedom
   ion dynamics with fricp =  0.0000 and greasp =  1.0000
   Ionic position (from input)
   sorted by specie, and converted to real a.u. coordinates
   Species   1 atoms =   32 mass =     29166.22 (a.u.),        16.00 (amu) rcmax =   0.50 (a.u.)
       16.115500   -21.906700    97.672200
       11.535400   -10.947300    92.713400
       22.991200   -32.624600    80.239500
        7.112770   -28.170900    92.139600
        9.498750   -20.522900    94.523300
       16.614700   -17.437400    86.715700
       -0.250940   -32.047100    93.581100
       17.469200   -24.812800    91.772600
        9.524150   -34.655800    88.823200
        8.646670   -23.127000    80.473000
        3.661560   -29.162100    95.102700
       20.994300   -22.003300    94.398000
       13.729200   -21.798100    86.691800
       15.328800   -31.839300    89.628700
        4.948030   -32.134500    86.140100
       19.106100   -28.885300    88.403200
        5.670910   -20.621000    91.015300
       12.086300   -41.887700    91.442500
       12.404700   -26.504100    97.555400
       10.641400   -15.725800    76.697100
       10.104400   -19.437800    83.896400
       16.785300   -25.509200    85.375900
       17.737300   -33.450200    82.239200
        8.784620   -34.029400    81.163300
       20.335500   -22.655000   102.239000
       14.653500   -29.344700   101.390000
        3.948620   -24.674200    98.203400
        2.253850   -34.988000    89.772700
       24.790200   -21.673500    86.279900
       15.698800   -16.475400    96.577500
       26.331200   -26.456600    86.658800
       10.426000   -30.654900    84.468000
   Species   2 atoms =   64 mass =      3645.78 (a.u.),         2.00 (amu) rcmax =   0.50 (a.u.)
       16.323000   -22.057300    99.444200
       17.805500   -22.052000    96.880900
       11.264800   -12.795200    93.484300
       12.783800   -11.097400    91.358800
       22.615100   -31.097300    78.995100
       21.289700   -33.353500    80.136300
        8.874440   -28.650000    92.204500
        6.738120   -27.809200    90.354400
       11.025500   -21.181700    93.585400
       10.053800   -18.739800    94.771200
       17.089900   -16.687100    85.066300
       18.243400   -17.453800    87.831500
        0.771254   -33.440800    92.850400
       -1.344430   -31.981600    92.151100
       17.976600   -26.316900    90.895600
       15.696700   -24.455100    91.412200
        9.276290   -36.419400    88.523400
        8.937950   -34.298700    90.486600
        8.959260   -22.445900    78.616300
        9.674190   -24.695100    80.326400
        2.242770   -29.899100    94.126800
        4.886080   -28.868000    93.774200
       19.714200   -22.948700    93.611500
       21.652000   -22.956400    95.845600
       12.531000   -20.831800    85.599700
       14.986200   -20.438000    86.854800
       16.764800   -30.766000    89.014600
       15.479200   -33.493700    88.721100
        4.740850   -32.317400    84.322400
        6.658540   -32.636600    86.497100
       20.699400   -29.497400    87.624300
       18.241900   -27.830000    87.234100
        6.948440   -20.535300    92.366100
        4.306240   -21.416800    92.137900
       12.502400   -41.428400    89.550100
       10.920200   -43.186800    91.345800
       13.457900   -25.121800    96.981100
       11.911800   -27.632200    96.098200
        9.866910   -15.303500    78.580700
       12.517400   -15.986700    76.917000
        9.713850   -17.788500    83.136700
        9.478480   -20.537700    82.608900
       18.229500   -24.517200    84.674900
       15.538000   -24.205700    85.935800
       16.676500   -32.031400    82.501200
       16.892700   -34.270500    80.756400
        6.953730   -33.709700    80.944500
        9.148410   -32.575400    82.290700
       21.725900   -22.265600   103.388000
       21.125900   -23.441700   100.747000
       14.257300   -28.577300    99.627300
       15.161200   -27.788000   102.229000
        5.692090   -24.652400    98.808100
        3.351460   -26.335500    97.706200
        3.446270   -36.127900    90.536800
        3.289630   -34.010300    88.610200
       26.192100   -20.735400    85.692000
       24.818900   -21.432700    88.079500
       16.879000   -15.631100    95.272300
       15.867200   -18.318100    96.720300
       25.902300   -24.719700    86.187200
       27.198800   -27.406300    85.341600
       10.923400   -31.391500    86.097500
       12.225900   -30.308000    83.613300
   Ionic position will be re-read from restart file

   All atoms are allowed to move
   Ionic temperature control via nose thermostat


   ion dynamics with nose` temperature control:
   temperature required      =  300.00000 (kelvin) 
   NH chain length           =   4
   active degrees of freedom =    285
   time steps per nose osc.  =    344


   nose` frequency(es)       =      60.000     -1.000     -1.000     -1.000


   the requested type of NH chains is     2
   total number of thermostats used    96 1 0
   ionic degrees of freedom for each chain    3   3   3   3   3   3   3   3   3   3   3   3   3   3   3   3   3   3   3   3
   3   3   3   3   3   3   3   3   3   3   3   3   3   3   3   3   3   3   3   3
   3   3   3   3   3   3   3   3   3   3   3   3   3   3   3   3   3   3   3   3
   3   3   3   3   3   3   3   3   3   3   3   3   3   3   3   3   3   3   3   3
   3   3   3   3   3   3   3   3   3   3   3   3   3   3   3   3  96


*** default NH masses are multiplied by atomic masses ***


   nose` mass(es) for chain    1 =    1085.363    365.596    365.596    365.596


   nose` mass(es) for chain    2 =    1085.363    365.596    365.596    365.596


   nose` mass(es) for chain    3 =    1085.363    365.596    365.596    365.596


   nose` mass(es) for chain    4 =    1085.363    365.596    365.596    365.596


   nose` mass(es) for chain    5 =    1085.363    365.596    365.596    365.596


   nose` mass(es) for chain    6 =    1085.363    365.596    365.596    365.596


   nose` mass(es) for chain    7 =    1085.363    365.596    365.596    365.596


   nose` mass(es) for chain    8 =    1085.363    365.596    365.596    365.596


   nose` mass(es) for chain    9 =    1085.363    365.596    365.596    365.596


   nose` mass(es) for chain   10 =    1085.363    365.596    365.596    365.596


   nose` mass(es) for chain   11 =    1085.363    365.596    365.596    365.596


   nose` mass(es) for chain   12 =    1085.363    365.596    365.596    365.596


   nose` mass(es) for chain   13 =    1085.363    365.596    365.596    365.596


   nose` mass(es) for chain   14 =    1085.363    365.596    365.596    365.596


   nose` mass(es) for chain   15 =    1085.363    365.596    365.596    365.596


   nose` mass(es) for chain   16 =    1085.363    365.596    365.596    365.596


   nose` mass(es) for chain   17 =    1085.363    365.596    365.596    365.596


   nose` mass(es) for chain   18 =    1085.363    365.596    365.596    365.596


   nose` mass(es) for chain   19 =    1085.363    365.596    365.596    365.596


   nose` mass(es) for chain   20 =    1085.363    365.596    365.596    365.596


   nose` mass(es) for chain   21 =    1085.363    365.596    365.596    365.596


   nose` mass(es) for chain   22 =    1085.363    365.596    365.596    365.596


   nose` mass(es) for chain   23 =    1085.363    365.596    365.596    365.596


   nose` mass(es) for chain   24 =    1085.363    365.596    365.596    365.596


   nose` mass(es) for chain   25 =    1085.363    365.596    365.596    365.596


   nose` mass(es) for chain   26 =    1085.363    365.596    365.596    365.596


   nose` mass(es) for chain   27 =    1085.363    365.596    365.596    365.596


   nose` mass(es) for chain   28 =    1085.363    365.596    365.596    365.596


   nose` mass(es) for chain   29 =    1085.363    365.596    365.596    365.596


   nose` mass(es) for chain   30 =    1085.363    365.596    365.596    365.596


   nose` mass(es) for chain   31 =    1085.363    365.596    365.596    365.596


   nose` mass(es) for chain   32 =    1085.363    365.596    365.596    365.596


   nose` mass(es) for chain   33 =     135.670     45.700     45.700     45.700


   nose` mass(es) for chain   34 =     135.670     45.700     45.700     45.700


   nose` mass(es) for chain   35 =     135.670     45.700     45.700     45.700


   nose` mass(es) for chain   36 =     135.670     45.700     45.700     45.700


   nose` mass(es) for chain   37 =     135.670     45.700     45.700     45.700


   nose` mass(es) for chain   38 =     135.670     45.700     45.700     45.700


   nose` mass(es) for chain   39 =     135.670     45.700     45.700     45.700


   nose` mass(es) for chain   40 =     135.670     45.700     45.700     45.700


   nose` mass(es) for chain   41 =     135.670     45.700     45.700     45.700


   nose` mass(es) for chain   42 =     135.670     45.700     45.700     45.700


   nose` mass(es) for chain   43 =     135.670     45.700     45.700     45.700


   nose` mass(es) for chain   44 =     135.670     45.700     45.700     45.700


   nose` mass(es) for chain   45 =     135.670     45.700     45.700     45.700


   nose` mass(es) for chain   46 =     135.670     45.700     45.700     45.700


   nose` mass(es) for chain   47 =     135.670     45.700     45.700     45.700


   nose` mass(es) for chain   48 =     135.670     45.700     45.700     45.700


   nose` mass(es) for chain   49 =     135.670     45.700     45.700     45.700


   nose` mass(es) for chain   50 =     135.670     45.700     45.700     45.700


   nose` mass(es) for chain   51 =     135.670     45.700     45.700     45.700


   nose` mass(es) for chain   52 =     135.670     45.700     45.700     45.700


   nose` mass(es) for chain   53 =     135.670     45.700     45.700     45.700


   nose` mass(es) for chain   54 =     135.670     45.700     45.700     45.700


   nose` mass(es) for chain   55 =     135.670     45.700     45.700     45.700


   nose` mass(es) for chain   56 =     135.670     45.700     45.700     45.700


   nose` mass(es) for chain   57 =     135.670     45.700     45.700     45.700


   nose` mass(es) for chain   58 =     135.670     45.700     45.700     45.700


   nose` mass(es) for chain   59 =     135.670     45.700     45.700     45.700


   nose` mass(es) for chain   60 =     135.670     45.700     45.700     45.700


   nose` mass(es) for chain   61 =     135.670     45.700     45.700     45.700


   nose` mass(es) for chain   62 =     135.670     45.700     45.700     45.700


   nose` mass(es) for chain   63 =     135.670     45.700     45.700     45.700


   nose` mass(es) for chain   64 =     135.670     45.700     45.700     45.700


   nose` mass(es) for chain   65 =     135.670     45.700     45.700     45.700


   nose` mass(es) for chain   66 =     135.670     45.700     45.700     45.700


   nose` mass(es) for chain   67 =     135.670     45.700     45.700     45.700


   nose` mass(es) for chain   68 =     135.670     45.700     45.700     45.700


   nose` mass(es) for chain   69 =     135.670     45.700     45.700     45.700


   nose` mass(es) for chain   70 =     135.670     45.700     45.700     45.700


   nose` mass(es) for chain   71 =     135.670     45.700     45.700     45.700


   nose` mass(es) for chain   72 =     135.670     45.700     45.700     45.700


   nose` mass(es) for chain   73 =     135.670     45.700     45.700     45.700


   nose` mass(es) for chain   74 =     135.670     45.700     45.700     45.700


   nose` mass(es) for chain   75 =     135.670     45.700     45.700     45.700


   nose` mass(es) for chain   76 =     135.670     45.700     45.700     45.700


   nose` mass(es) for chain   77 =     135.670     45.700     45.700     45.700


   nose` mass(es) for chain   78 =     135.670     45.700     45.700     45.700


   nose` mass(es) for chain   79 =     135.670     45.700     45.700     45.700


   nose` mass(es) for chain   80 =     135.670     45.700     45.700     45.700


   nose` mass(es) for chain   81 =     135.670     45.700     45.700     45.700


   nose` mass(es) for chain   82 =     135.670     45.700     45.700     45.700


   nose` mass(es) for chain   83 =     135.670     45.700     45.700     45.700


   nose` mass(es) for chain   84 =     135.670     45.700     45.700     45.700


   nose` mass(es) for chain   85 =     135.670     45.700     45.700     45.700


   nose` mass(es) for chain   86 =     135.670     45.700     45.700     45.700


   nose` mass(es) for chain   87 =     135.670     45.700     45.700     45.700


   nose` mass(es) for chain   88 =     135.670     45.700     45.700     45.700


   nose` mass(es) for chain   89 =     135.670     45.700     45.700     45.700


   nose` mass(es) for chain   90 =     135.670     45.700     45.700     45.700


   nose` mass(es) for chain   91 =     135.670     45.700     45.700     45.700


   nose` mass(es) for chain   92 =     135.670     45.700     45.700     45.700


   nose` mass(es) for chain   93 =     135.670     45.700     45.700     45.700


   nose` mass(es) for chain   94 =     135.670     45.700     45.700     45.700


   nose` mass(es) for chain   95 =     135.670     45.700     45.700     45.700


   nose` mass(es) for chain   96 =     135.670     45.700     45.700     45.700


   nose` mass(es) for chain   97 =   14623.843    152.332    152.332    152.332


   atom i (in sorted order) is assigned to this thermostat :
   1   2   3   4   5   6   7   8   9  10  11  12  13  14  15  16  17  18  19  20
  21  22  23  24  25  26  27  28  29  30  31  32  33  34  35  36  37  38  39  40
  41  42  43  44  45  46  47  48  49  50  51  52  53  54  55  56  57  58  59  60
  61  62  63  64  65  66  67  68  69  70  71  72  73  74  75  76  77  78  79  80
  81  82  83  84  85  86  87  88  89  90  91  92  93  94  95  96


   Cell Dynamics Parameters (from STDIN)
   -------------------------------------
   Starting cell generated from CELLDM
   Cell parameters will be re-read from restart file
   Constant VOLUME Molecular dynamics
   cell parameters are not allowed to move

   Verbosity: iverbosity =  0



   Simulation dimensions initialization
   ------------------------------------

   unit vectors of full simulation cell
   in real space:                         in reciprocal space (units 2pi/alat):
   1    18.6655    0.0000    0.0000              1.0000    0.0000    0.0000
   2     0.0000   18.6655    0.0000              0.0000    1.0000    0.0000
   3     0.0000    0.0000   18.6655              0.0000    0.0000    1.0000
 
     Parallelization info
     --------------------
     sticks:   dense  smooth     PW     G-vecs:    dense   smooth      PW
     Min          72      72     18                 5364     5364     666
     Max          74      74     20                 5386     5386     684
     Sum        9425    9425   2361               688245   688245   86407
     Tot        4713    4713   1181
 
 
   Real Mesh
   ---------
   Global Dimensions   Local  Dimensions   Processor Grid
   .X.   .Y.   .Z.     .X.   .Y.   .Z.     .X.   .Y.   .Z.
   120   120   120     120   120     1       1     1   128
   Array leading dimensions ( nr1x, nr2x, nr3x )   =    120   120   120
   Local number of cell to store the grid ( nrxx ) =      14400
   Number of x-y planes for each processors: 
   nr3l =     1    1    1    1    1    1    1    1    1    1
   nr3l =     1    1    1    1    1    1    1    1    1    1
   nr3l =     1    1    1    1    1    1    1    1    1    1
   nr3l =     1    1    1    1    1    1    1    1    1    1
   nr3l =     1    1    1    1    1    1    1    1    1    1
   nr3l =     1    1    1    1    1    1    1    1    1    1
   nr3l =     1    1    1    1    1    1    1    1    1    1
   nr3l =     1    1    1    1    1    1    1    1    1    1
   nr3l =     1    1    1    1    1    1    1    1    1    1
   nr3l =     1    1    1    1    1    1    1    1    1    1
   nr3l =     1    1    1    1    1    1    1    1    1    1
   nr3l =     1    1    1    1    1    1    1    1    1    1
   nr3l =     0    0    0    0    0    0    0    0
 
   Smooth Real Mesh
   ----------------
   Global Dimensions   Local  Dimensions   Processor Grid
   .X.   .Y.   .Z.     .X.   .Y.   .Z.     .X.   .Y.   .Z.
   120   120   120     120   120     1       1     1   128
   Array leading dimensions ( nr1x, nr2x, nr3x )   =    120   120   120
   Local number of cell to store the grid ( nrxx ) =      14400
   Number of x-y planes for each processors: 
   nr3sl =     1    1    1    1    1    1    1    1    1    1
   nr3sl =     1    1    1    1    1    1    1    1    1    1
   nr3sl =     1    1    1    1    1    1    1    1    1    1
   nr3sl =     1    1    1    1    1    1    1    1    1    1
   nr3sl =     1    1    1    1    1    1    1    1    1    1
   nr3sl =     1    1    1    1    1    1    1    1    1    1
   nr3sl =     1    1    1    1    1    1    1    1    1    1
   nr3sl =     1    1    1    1    1    1    1    1    1    1
   nr3sl =     1    1    1    1    1    1    1    1    1    1
   nr3sl =     1    1    1    1    1    1    1    1    1    1
   nr3sl =     1    1    1    1    1    1    1    1    1    1
   nr3sl =     1    1    1    1    1    1    1    1    1    1
   nr3sl =     0    0    0    0    0    0    0    0
 
   Reciprocal Space Mesh
   ---------------------
   Large Mesh
     Global(ngm_g)    MinLocal       MaxLocal      Average
         344123           2682           2693        2688.46
   Smooth Mesh
     Global(ngms_g)   MinLocal       MaxLocal      Average
         344123           2682           2693        2688.46
   Wave function Mesh
     Global(ngw_g)    MinLocal       MaxLocal      Average
          43204            333            342         337.53


   System geometry initialization
   ------------------------------
   cell parameters read from restart file
   ibrav =    1       cell parameters 


   cell at current step : h(t)
      18.66550       0.00000       0.00000
       0.00000      18.66550       0.00000
       0.00000       0.00000      18.66550

   cell at previous step : h(t-dt)
      18.66550       0.00000       0.00000
       0.00000      18.66550       0.00000
       0.00000       0.00000      18.66550
 

   Matrix Multiplication Performances
   ortho mmul, time for parallel driver      =   0.00064 with  121 procs

   Constraints matrixes will be distributed block like on
   ortho sub-group =   11*  11 procs



   Pseudopotentials initialization
   -------------------------------


   Common initialization

   Specie:     1
   1  indv=  1   ang. mom=  0
 
                        dion 
   0.2201

   Specie:     2
 
                        dion 

   ----------------------------------------------------
   Exact Exchange Using Wannier Function Initialization
   ----------------------------------------------------

   Parallelization info :
     electronic states          128
     MPI tasks                  128
     OpenMP threads/MPI task      1
     Taskgroups                   1

   parameters used in exact exchange calculation
     radius to compute pairs:   8.0 A.U.   maximum number of neighbors:   60

   parameters used to solve Poisson equation
     radius for self potential:   6.0 A.U.   radius for pair potential:   5.0 A.U.
     Poisson solver discretized using   7   points in each dimension

   parameters used for multipole expansion
     radius for self potential:   9.3 A.U.   radius for pair potential:   7.0 A.U.
     maximum angular momentum:   6

   number of grid points in Poisson spehere 
     self potential:  240369   pair potential:  138985

   number of grid points in multipole expansion spehere: 
     self potential:  895731   pair potential:  381915

   ----------------------------------------------------
 ------------------------DYNAMICS IN THE WANNIER BASIS--------------------------
                              DYNAMICS PARAMETERS 
 FICTITIOUS MASS PARAMETER USED FOR SPREAD OPTIMIZATION            =   500.0
 TIME STEP USED FOR DAMPED DYNAMICS                                =  4.0000000
 DAMPING COEFFICIENT USED FOR WANNIER FUNCTION SPREAD OPTIMIZATION =  0.3000000
          40 STEPS OF DAMPED MOLECULAR DYNAMICS FOR OPTIMIZATION OF THE SPREAD
 AVERAGE WANNIER FUNCTION SPREAD WRITTEN TO     FORT.24
 INDIVIDUAL WANNIER FUNCTION SPREAD WRITTEN TO  .//water.spr
 WANNIER CENTERS WRITTEN TO                     .//water.wfc
 SOME PERTINENT RUN-TIME INFORMATION WRITTEN TO FORT.27
 -------------------------------------------------------------------------------
 
 wannier_startup IBRAV SELECTED:           1
 WANNIER SETUP : check G vectors and weights
inw = 1:   1   0   0   1.000000
inw = 2:   0   1   0   1.000000
inw = 3:   0   0   1   1.000000
 Translations to be done           3
 ibrav selected:           1
 Translation           1 for       43204 G vectors
 Translation           2 for       43204 G vectors
 Translation           3 for         337 G vectors
 

   Cell parameters from input file are used in electron mass preconditioning
   init_tpiba2=    0.11331319
 
   Short Legend and Physical Units in the Output
   ---------------------------------------------
   NFI    [int]          - step index
   EKINC  [HARTREE A.U.] - kinetic energy of the fictitious electronic dynamics
   TEMPH  [K]            - Temperature of the fictitious cell dynamics
   TEMP   [K]            - Ionic temperature
   ETOT   [HARTREE A.U.] - Scf total energy (Kohn-Sham hamiltonian)
   ENTHAL [HARTREE A.U.] - Enthalpy ( ETOT + P * V )
   ECONS  [HARTREE A.U.] - Enthalpy + kinetic energy of ions and cell
   ECONT  [HARTREE A.U.] - Constant of motion for the CP lagrangian
 

   reading restart file: ./water_50.save
   restart file read in    1.500 sec.


   formf: eself=   970.22763
   formf:     vps(g=0)=  -0.0005816     rhops(g=0)=  -0.0009161
   formf: sum_g vps(g)=  -2.9639734 sum_g rhops(g)=  -4.3105522
   formf:     vps(g=0)=  -0.0001219     rhops(g=0)=  -0.0001527
   formf: sum_g vps(g)=  -1.7276381 sum_g rhops(g)=  -0.7184254
   Delta V(G=0):   0.030893Ry,    0.840638eV
   nj_max nj_min nj_avg :    23    17 20.42
 
  nfi     ekinc              temph  tempp          exx               etot               enthal               econs                econt            vnhh    xnhh0   vnhp    xnhp0
    166    0.000005786692626    0.0    0.01     -31.505186528338    -550.123879560053    -550.123879560053    -550.123873702811    -550.123863614940   0.0000   0.0000  -0.0000   0.0000
   MLWF step    3  Convergence =  2.414E-07  Generated
   nj_max nj_min nj_avg :    23    17 20.42
    167    0.000008163396861    0.0    0.12     -31.505206394039    -550.123933465318    -550.123933465318    -550.123880836177    -550.123868377667   0.0000   0.0000  -0.0000  -0.0000
   MLWF step    2  Convergence =  4.281E-08  Generated
   nj_max nj_min nj_avg :    23    17 20.42
    168    0.000010775907830    0.0    0.32     -31.505205767593    -550.124021437269    -550.124021437269    -550.123875689949    -550.123860651784   0.0000   0.0000  -0.0000  -0.0000
   MLWF step    5  Convergence =  3.826E-07  Generated
   nj_max nj_min nj_avg :    23    17 20.42
    169    0.000015064835442    0.0    0.63     -31.505210253114    -550.124167575155    -550.124167575155    -550.123883066200    -550.123863839945   0.0000   0.0000  -0.0000  -0.0001
   MLWF step    2  Convergence =  5.148E-08  Generated
   nj_max nj_min nj_avg :    23    17 20.42
    170    0.000018651949363    0.0    1.04     -31.505206873873    -550.124353172184    -550.124353172184    -550.123884996584    -550.123862413277   0.0000   0.0000  -0.0000  -0.0001
   MLWF step    2  Convergence =  4.051E-07  Generated
   nj_max nj_min nj_avg :    23    17 20.43
    171    0.000022775963970    0.0    1.54     -31.505211608491    -550.124584606000    -550.124584606000    -550.123888395355    -550.123862128158   0.0000   0.0000  -0.0000  -0.0002
   MLWF step    2  Convergence =  4.672E-07  Generated
   nj_max nj_min nj_avg :    23    17 20.43
    172    0.000027923778187    0.0    2.15     -31.505235020550    -550.124860633146    -550.124860633146    -550.123892211997    -550.123861547231   0.0000   0.0000  -0.0000  -0.0002
   MLWF step    4  Convergence =  1.804E-07  Generated
   nj_max nj_min nj_avg :    23    17 20.43
    173    0.000035462211270    0.0    2.85     -31.505288429030    -550.125180476205    -550.125180476205    -550.123895525089    -550.123858501269   0.0000   0.0000  -0.0000  -0.0003
   MLWF step    2  Convergence =  4.996E-07  Generated
   nj_max nj_min nj_avg :    23    17 20.43
    174    0.000042695278741    0.0    3.65     -31.505383261028    -550.125546104129    -550.125546104129    -550.123899975725    -550.123857465063   0.0000   0.0000  -0.0000  -0.0004
   MLWF step    4  Convergence =  4.167E-07  Generated
   nj_max nj_min nj_avg :    23    17 20.42
    175    0.000050136202272    0.0    4.55     -31.505521071639    -550.125954771045    -550.125954771045    -550.123902551200    -550.123855068743   0.0000   0.0000  -0.0000  -0.0005
   MLWF step    4  Convergence =  2.271E-07  Generated
   nj_max nj_min nj_avg :    23    17 20.42
    176    0.000056897776323    0.0    5.55     -31.505700380875    -550.126407149970    -550.126407149970    -550.123903968275    -550.123853090030   0.0000   0.0000  -0.0001  -0.0006
   MLWF step    2  Convergence =  4.153E-07  Generated
   nj_max nj_min nj_avg :    23    17 20.43
    177    0.000061972893028    0.0    6.64     -31.505913354466    -550.126903424237    -550.126903424237    -550.123904927807    -550.123853427376   0.0000   0.0000  -0.0001  -0.0007
   MLWF step    5  Convergence =  3.668E-07  Generated
   nj_max nj_min nj_avg :    23    17 20.43
    178    0.000066960957153    0.0    7.84     -31.506144897327    -550.127440119137    -550.127440119137    -550.123902959439    -550.123852216954   0.0000   0.0000  -0.0001  -0.0008
   MLWF step    2  Convergence =  3.483E-07  Generated
   nj_max nj_min nj_avg :    23    17 20.43
    179    0.000072327639357    0.0    9.12     -31.506384908219    -550.128019269794    -550.128019269794    -550.123901439919    -550.123852589835   0.0000   0.0000  -0.0001  -0.0009
   MLWF step    2  Convergence =  3.692E-07  Generated
   nj_max nj_min nj_avg :    23    17 20.43
    180    0.000078630588019    0.0   10.50     -31.506622035929    -550.128639011069    -550.128639011069    -550.123899917327    -550.123853769196   0.0000   0.0000  -0.0001  -0.0011
   MLWF step    5  Convergence =  2.789E-07  Generated
   nj_max nj_min nj_avg :    23    17 20.43
    181    0.000085883691976    0.0   11.97     -31.506848585395    -550.129296227656    -550.129296227656    -550.123896471490    -550.123854065434   0.0000   0.0000  -0.0001  -0.0012
   MLWF step    2  Convergence =  8.224E-08  Generated
   nj_max nj_min nj_avg :    23    17 20.43
    182    0.000096112658086    0.0   13.52     -31.507068810325    -550.129993412884    -550.129993412884    -550.123894363519    -550.123854969424   0.0000   0.0000  -0.0001  -0.0014
   MLWF step    2  Convergence =  1.228E-07  Generated
   nj_max nj_min nj_avg :    23    17 20.43
    183    0.000107513361478    0.0   15.15     -31.507288749416    -550.130729172765    -550.130729172765    -550.123892487099    -550.123857444955   0.0000   0.0000  -0.0001  -0.0016
   MLWF step    7  Convergence =  6.544E-08  Generated
   nj_max nj_min nj_avg :    23    17 20.43
    184    0.000117392832820    0.0   16.87     -31.507515359188    -550.131499076395    -550.131499076395    -550.123886343469    -550.123859962176   0.0000   0.0000  -0.0001  -0.0018
   MLWF step    5  Convergence =  2.154E-07  Generated
   nj_max nj_min nj_avg :    23    17 20.43
    185    0.000128578329600    0.0   18.67     -31.507763057903    -550.132305037152    -550.132305037152    -550.123877682693    -550.123861728928   0.0000   0.0000  -0.0001  -0.0020
   MLWF step    3  Convergence =  3.495E-08  Generated
   nj_max nj_min nj_avg :    23    17 20.43
    186    0.000139075969288    0.0   20.57     -31.508041797443    -550.133146301363    -550.133146301363    -550.123865799532    -550.123864326549   0.0000   0.0000  -0.0001  -0.0022
   MLWF step    5  Convergence =  4.086E-07  Generated
   nj_max nj_min nj_avg :    23    17 20.43
    187    0.000147432120763    0.0   22.54     -31.508354055387    -550.134018672353    -550.134018672353    -550.123847010079    -550.123865823127   0.0000   0.0000  -0.0001  -0.0024
   MLWF step    4  Convergence =  4.570E-07  Generated
   nj_max nj_min nj_avg :    23    17 20.42
    188    0.000155313720707    0.0   24.60     -31.508698552014    -550.134919309701    -550.134919309701    -550.123819568359    -550.123863107397   0.0000   0.0000  -0.0001  -0.0026
   MLWF step   10  Convergence =  2.873E-07  Generated
   nj_max nj_min nj_avg :    23    17 20.43
    189    0.000165170471140    0.0   26.73     -31.509077504789    -550.135853589065    -550.135853589065    -550.123790474287    -550.123861032047   0.0000   0.0000  -0.0001  -0.0029
   MLWF step    5  Convergence =  1.774E-07  Generated
   nj_max nj_min nj_avg :    23    17 20.43
    190    0.000174916229777    0.0   28.94     -31.509479452038    -550.136816540906    -550.136816540906    -550.123756712561    -550.123858969077   0.0000   0.0000  -0.0001  -0.0031
   MLWF step    2  Convergence =  2.295E-07  Generated
   nj_max nj_min nj_avg :    23    17 20.43
    191    0.000184414984413    0.0   31.22     -31.509896209098    -550.137807656953    -550.137807656953    -550.123719780238    -550.123858849813   0.0000   0.0000  -0.0001  -0.0034
   MLWF step    5  Convergence =  2.832E-07  Generated
   nj_max nj_min nj_avg :    23    17 20.43
    192    0.000196935504985    0.0   33.56     -31.510317650251    -550.138823118028    -550.138823118028    -550.123677649050    -550.123855671589   0.0000   0.0000  -0.0001  -0.0036
   MLWF step    4  Convergence =  3.586E-07  Generated
   nj_max nj_min nj_avg :    23    17 20.43
    193    0.000211871540992    0.0   35.97     -31.510741570397    -550.139863811499    -550.139863811499    -550.123632613837    -550.123852625392   0.0000   0.0000  -0.0001  -0.0039
   MLWF step    3  Convergence =  2.345E-07  Generated
   nj_max nj_min nj_avg :    23    17 20.43
    194    0.000227358627322    0.0   38.43     -31.511166820445    -550.140927634933    -550.140927634933    -550.123583572387    -550.123850758317   0.0000   0.0000  -0.0001  -0.0042
   MLWF step    2  Convergence =  2.221E-07  Generated
   nj_max nj_min nj_avg :    23    17 20.43
    195    0.000242824176714    0.0   40.96     -31.511596586699    -550.142012998426    -550.142012998426    -550.123529647328    -550.123850044396   0.0000   0.0000  -0.0002  -0.0045
   MLWF step    2  Convergence =  2.642E-07  Generated
   nj_max nj_min nj_avg :    23    17 20.43
    196    0.000258026566342    0.0   43.54     -31.512036362341    -550.143117911716    -550.143117911716    -550.123469486235    -550.123849643992   0.0000   0.0000  -0.0002  -0.0048
   MLWF step    2  Convergence =  1.605E-07  Generated
   nj_max nj_min nj_avg :    23    17 20.43
    197    0.000272909364626    0.0   46.18     -31.512493053609    -550.144240684944    -550.144240684944    -550.123402192339    -550.123848977986   0.0000   0.0000  -0.0002  -0.0051
   MLWF step    2  Convergence =  1.436E-07  Generated
   nj_max nj_min nj_avg :    23    17 20.43
    198    0.000287280640956    0.0   48.87     -31.512973140376    -550.145379695308    -550.145379695308    -550.123327262889    -550.123847984117   0.0000   0.0000  -0.0002  -0.0055
   MLWF step    2  Convergence =  1.538E-07  Generated
   nj_max nj_min nj_avg :    23    17 20.43
    199    0.000301034299533    0.0   51.61     -31.513481366626    -550.146533368046    -550.146533368046    -550.123244635433    -550.123846939282   0.0000   0.0000  -0.0002  -0.0058
   MLWF step    3  Convergence =  4.192E-07  Generated
   nj_max nj_min nj_avg :    23    17 20.44
    200    0.000315554572845    0.0   54.39     -31.514019833959    -550.147700030910    -550.147700030910    -550.123154493709    -550.123844858794   0.0000   0.0000  -0.0002  -0.0061

   writing restart file: ./water_50.save
   restart file written in    1.557 sec.

   MLWF step    3  Convergence =  3.177E-07  Generated
   nj_max nj_min nj_avg :    23    17 20.44
    201    0.000330696367058    0.0   57.22     -31.514587477608    -550.148877360892    -550.148877360892    -550.123056582618    -550.123841829706   0.0000   0.0000  -0.0002  -0.0065
   MLWF step    5  Convergence =  1.612E-07  Generated
   nj_max nj_min nj_avg :    23    17 20.44
    202    0.000349859123786    0.0   60.08     -31.515182627391    -550.150064074985    -550.150064074985    -550.122951736893    -550.123835465163   0.0000   0.0000  -0.0002  -0.0069
   MLWF step    4  Convergence =  2.124E-07  Generated
   nj_max nj_min nj_avg :    23    17 20.43
    203    0.000369412596367    0.0   62.97     -31.515802676658    -550.151258364724    -550.151258364724    -550.122840177447    -550.123829775093   0.0000   0.0000  -0.0002  -0.0073
   MLWF step    2  Convergence =  3.875E-07  Generated
   nj_max nj_min nj_avg :    23    17 20.43
    204    0.000387232050564    0.0   65.89     -31.516447269199    -550.152459859119    -550.152459859119    -550.122723396407    -550.123828516240   0.0000   0.0000  -0.0002  -0.0076
   MLWF step    2  Convergence =  1.075E-07  Generated
   nj_max nj_min nj_avg :    23    17 20.43
    205    0.000405670251054    0.0   68.84     -31.517115463106    -550.153666228296    -550.153666228296    -550.122600750921    -550.123828813777   0.0000   0.0000  -0.0002  -0.0080
   MLWF step    2  Convergence =  4.338E-07  Generated
   nj_max nj_min nj_avg :    23    17 20.43
    206    0.000425006839965    0.0   71.81     -31.517805817346    -550.154873323064    -550.154873323064    -550.122469644538    -550.123827892384   0.0000   0.0000  -0.0002  -0.0085
   MLWF step    2  Convergence =  2.768E-07  Generated
   nj_max nj_min nj_avg :    23    17 20.43
    207    0.000445225621078    0.0   74.79     -31.518520977414    -550.156080315980    -550.156080315980    -550.122330731487    -550.123826501578   0.0000   0.0000  -0.0002  -0.0089
   MLWF step    4  Convergence =  3.772E-07  Generated
   nj_max nj_min nj_avg :    23    17 20.44
    208    0.000470031603129    0.0   77.78     -31.519265116194    -550.157287835670    -550.157287835670    -550.122186105569    -550.123823085524   0.0000   0.0000  -0.0002  -0.0093
   MLWF step    2  Convergence =  4.541E-07  Generated
   nj_max nj_min nj_avg :    23    17 20.44
    209    0.000491644234574    0.0   80.79     -31.520036033296    -550.158490880222    -550.158490880222    -550.122032243653    -550.123821931376   0.0000   0.0000  -0.0002  -0.0097
   MLWF step    4  Convergence =  2.904E-07  Generated
   nj_max nj_min nj_avg :    23    17 20.44
    210    0.000516858524713    0.0   83.81     -31.520833726248    -550.159687710044    -550.159687710044    -550.121868907841    -550.123816009092   0.0000   0.0000  -0.0002  -0.0102
   MLWF step    4  Convergence =  4.416E-07  Generated
   nj_max nj_min nj_avg :    23    17 20.44
    211    0.000542132307334    0.0   86.82     -31.521657705430    -550.160877397250    -550.160877397250    -550.121696702064    -550.123809440536   0.0000   0.0000  -0.0002  -0.0107
   MLWF step    3  Convergence =  2.139E-07  Generated
   nj_max nj_min nj_avg :    23    17 20.44
    212    0.000564242973921    0.0   89.84     -31.522505489507    -550.162058105464    -550.162058105464    -550.121515377944    -550.123805149376   0.0000   0.0000  -0.0002  -0.0111
   MLWF step    4  Convergence =  3.911E-08  Generated
   nj_max nj_min nj_avg :    22    17 20.43
    213    0.000587592238622    0.0   92.86     -31.523373192763    -550.163227061129    -550.163227061129    -550.121323860620    -550.123797583573   0.0000   0.0000  -0.0002  -0.0116
   MLWF step    3  Convergence =  5.790E-08  Generated
   nj_max nj_min nj_avg :    23    17 20.43
    214    0.000607879442576    0.0   95.86     -31.524260038354    -550.164384047139    -550.164384047139    -550.121123815444    -550.123792610242   0.0000   0.0000  -0.0002  -0.0121
   MLWF step    2  Convergence =  2.439E-07  Generated
   nj_max nj_min nj_avg :    23    17 20.44
    215    0.000624884889847    0.0   98.86     -31.525164939596    -550.165527408855    -550.165527408855    -550.120915715189    -550.123790800513   0.0000   0.0000  -0.0003  -0.0126
   MLWF step    2  Convergence =  1.812E-08  Generated
   nj_max nj_min nj_avg :    23    17 20.44
    216    0.000640847574682    0.0  101.84     -31.526086535853    -550.166653781036    -550.166653781036    -550.120698577768    -550.123788789649   0.0000   0.0000  -0.0003  -0.0131
   MLWF step    3  Convergence =  2.987E-07  Generated
   nj_max nj_min nj_avg :    22    17 20.44
    217    0.000659104065920    0.0  104.79     -31.527025476813    -550.167760695387    -550.167760695387    -550.120472506532    -550.123783177800   0.0000   0.0000  -0.0003  -0.0136
   MLWF step    2  Convergence =  3.043E-07  Generated
   nj_max nj_min nj_avg :    22    17 20.44
    218    0.000676052472484    0.0  107.71     -31.527986079041    -550.168849244115    -550.168849244115    -550.120241205949    -550.123781080684   0.0000   0.0000  -0.0003  -0.0142
   MLWF step    2  Convergence =  5.121E-08  Generated
   nj_max nj_min nj_avg :    22    17 20.44
    219    0.000693875864729    0.0  110.60     -31.528967030655    -550.169915268383    -550.169915268383    -550.120002974392    -550.123778398208   0.0000   0.0000  -0.0003  -0.0147
   MLWF step    2  Convergence =  3.734E-07  Generated
   nj_max nj_min nj_avg :    22    17 20.44
    220    0.000712823509362    0.0  113.45     -31.529969050762    -550.170957677060    -550.170957677060    -550.119758838720    -550.123775668028   0.0000   0.0000  -0.0003  -0.0152
   MLWF step    2  Convergence =  2.523E-07  Generated
   nj_max nj_min nj_avg :    23    17 20.44
    221    0.000732698305245    0.0  116.26     -31.530991419510    -550.171974854768    -550.171974854768    -550.119508856301    -550.123772881692   0.0000   0.0000  -0.0003  -0.0158
   MLWF step    6  Convergence =  4.107E-07  Generated
   nj_max nj_min nj_avg :    22    17 20.44
    222    0.000764061751557    0.0  119.02     -31.532031247371    -550.172963629324    -550.172963629324    -550.119251104838    -550.123757272387   0.0000   0.0000  -0.0003  -0.0164
   MLWF step    2  Convergence =  6.937E-09  Generated
   nj_max nj_min nj_avg :    22    17 20.45
    223    0.000783692703265    0.0  121.74     -31.533093037362    -550.173928359822    -550.173928359822    -550.118990932220    -550.123757109790   0.0000   0.0000  -0.0003  -0.0170
   MLWF step    3  Convergence =  4.505E-07  Generated
   nj_max nj_min nj_avg :    22    17 20.45
    224    0.000803960840042    0.0  124.40     -31.534168227818    -550.174859579659    -550.174859579659    -550.118719865842    -550.123751239811   0.0000   0.0000  -0.0003  -0.0175
   MLWF step    2  Convergence =  3.665E-07  Generated
   nj_max nj_min nj_avg :    22    17 20.45
    225    0.000819488109452    0.0  127.01     -31.535260535648    -550.175758698572    -550.175758698572    -550.118440608345    -550.123747422154   0.0000   0.0000  -0.0003  -0.0181
   MLWF step    2  Convergence =  2.168E-07  Generated
   nj_max nj_min nj_avg :    22    17 20.45
    226    0.000832085559235    0.0  129.57     -31.536373662610    -550.176625422513    -550.176625422513    -550.118154681405    -550.123745039437   0.0000   0.0000  -0.0003  -0.0188
   MLWF step    7  Convergence =  1.750E-07  Generated
   nj_max nj_min nj_avg :    22    17 20.45
    227    0.000855867374380    0.0  132.06     -31.537511636016    -550.177458808089    -550.177458808089    -550.117863548909    -550.123731107323   0.0000   0.0000  -0.0003  -0.0194
   MLWF step    2  Convergence =  4.672E-07  Generated
   nj_max nj_min nj_avg :    22    17 20.45
    228    0.000866348226262    0.0  134.48     -31.538675484927    -550.178254960902    -550.178254960902    -550.117566185720    -550.123728746202   0.0000   0.0000  -0.0003  -0.0200
   MLWF step    2  Convergence =  4.054E-08  Generated
   nj_max nj_min nj_avg :    22    17 20.45
    229    0.000877364556267    0.0  136.83     -31.539869230222    -550.179013957171    -550.179013957171    -550.117265691801    -550.123726874314   0.0000   0.0000  -0.0003  -0.0206
   MLWF step    2  Convergence =  2.922E-08  Generated
   nj_max nj_min nj_avg :    22    17 20.45
    230    0.000889465588452    0.0  139.10     -31.541092983177    -550.179733979458    -550.179733979458    -550.116963025159    -550.123725550819   0.0000   0.0000  -0.0003  -0.0213
   MLWF step    2  Convergence =  3.502E-07  Generated
   nj_max nj_min nj_avg :    22    17 20.45
    231    0.000903504325536    0.0  141.28     -31.542343205129    -550.180411915263    -550.180411915263    -550.116657224858    -550.123722610346   0.0000   0.0000  -0.0003  -0.0220
   MLWF step    2  Convergence =  2.798E-07  Generated
   nj_max nj_min nj_avg :    22    17 20.45
    232    0.000919470784662    0.0  143.37     -31.543620124727    -550.181050545370    -550.181050545370    -550.116352372864    -550.123721795643   0.0000   0.0000  -0.0003  -0.0226
   MLWF step    2  Convergence =  1.924E-07  Generated
   nj_max nj_min nj_avg :    22    17 20.45
    233    0.000936421671143    0.0  145.37     -31.544917279037    -550.181647049744    -550.181647049744    -550.116046103437    -550.123721342415   0.0000   0.0000  -0.0003  -0.0233
   MLWF step    4  Convergence =  3.360E-08  Generated
   nj_max nj_min nj_avg :    22    17 20.46
    234    0.000955680835493    0.0  147.28     -31.546229609031    -550.182199790463    -550.182199790463    -550.115736630235    -550.123717811360   0.0000   0.0000  -0.0003  -0.0240
   MLWF step    7  Convergence =  1.262E-07  Generated
   nj_max nj_min nj_avg :    22    17 20.46
    235    0.000977353248451    0.0  149.10     -31.547554849961    -550.182708448774    -550.182708448774    -550.115423301143    -550.123710133742   0.0000   0.0000  -0.0004  -0.0247
   MLWF step    7  Convergence =  3.348E-07  Generated
   nj_max nj_min nj_avg :    22    17 20.45
    236    0.000995037124575    0.0  150.83     -31.548889065375    -550.183168792643    -550.183168792643    -550.115101831745    -550.123700136082   0.0000   0.0000  -0.0004  -0.0254
   MLWF step    3  Convergence =  2.715E-07  Generated
   nj_max nj_min nj_avg :    22    17 20.45
    237    0.001003618579183    0.0  152.48     -31.550241411329    -550.183587361743    -550.183587361743    -550.114779358399    -550.123699800231   0.0000   0.0000  -0.0004  -0.0261
   MLWF step    7  Convergence =  2.946E-07  Generated
   nj_max nj_min nj_avg :    22    17 20.45
    238    0.001012093015335    0.0  154.02     -31.551612257583    -550.183960739572    -550.183960739572    -550.114453859667    -550.123697863702   0.0000   0.0000  -0.0004  -0.0269
   MLWF step    2  Convergence =  3.500E-07  Generated
   nj_max nj_min nj_avg :    22    17 20.45
    239    0.001014303036062    0.0  155.48     -31.553002848965    -550.184286187186    -550.184286187186    -550.114124664229    -550.123699589251   0.0000   0.0000  -0.0004  -0.0276
   MLWF step    2  Convergence =  1.594E-08  Generated
   nj_max nj_min nj_avg :    22    17 20.45
    240    0.001015539029547    0.0  156.82     -31.554416133402    -550.184563914101    -550.184563914101    -550.113794350027    -550.123702063286   0.0000   0.0000  -0.0004  -0.0283
   MLWF step    4  Convergence =  2.074E-07  Generated
   nj_max nj_min nj_avg :    22    17 20.45
    241    0.001017884340498    0.0  158.06     -31.555850448220    -550.184791982743    -550.184791982743    -550.113463139106    -550.123703246399   0.0000   0.0000  -0.0004  -0.0291
   MLWF step    5  Convergence =  1.983E-08  Generated
   nj_max nj_min nj_avg :    22    17 20.45
    242    0.001023076948263    0.0  159.19     -31.557305251405    -550.184972395300    -550.184972395300    -550.113134492346    -550.123704708721   0.0000   0.0000  -0.0004  -0.0299
   MLWF step    2  Convergence =  3.789E-07  Generated
   nj_max nj_min nj_avg :    22    17 20.45
    243    0.001029994691426    0.0  160.21     -31.558775390216    -550.185104969231    -550.185104969231    -550.112808663812    -550.123707702609   0.0000   0.0000  -0.0004  -0.0307
   MLWF step    4  Convergence =  4.366E-07  Generated
   nj_max nj_min nj_avg :    22    17 20.45
    244    0.001037387137672    0.0  161.11     -31.560252566528    -550.185187653045    -550.185187653045    -550.112482967241    -550.123710701463   0.0000   0.0000  -0.0004  -0.0315
   MLWF step    4  Convergence =  1.411E-07  Generated
   nj_max nj_min nj_avg :    22    17 20.45
    245    0.001045372624264    0.0  161.91     -31.561732418361    -550.185222125185    -550.185222125185    -550.112157613302    -550.123713743815   0.0000   0.0000  -0.0004  -0.0323
   MLWF step    2  Convergence =  2.814E-07  Generated
   nj_max nj_min nj_avg :    22    17 20.45
    246    0.001052088218543    0.0  162.60     -31.563210761528    -550.185208609370    -550.185208609370    -550.111830976466    -550.123717052938   0.0000   0.0000  -0.0004  -0.0331
   MLWF step    4  Convergence =  1.967E-07  Generated
   nj_max nj_min nj_avg :    23    17 20.46
    247    0.001054195909362    0.0  163.20     -31.564686625893    -550.185148154280    -550.185148154280    -550.111502398823    -550.123723335367   0.0000   0.0000  -0.0004  -0.0339
   MLWF step    2  Convergence =  2.961E-07  Generated
   nj_max nj_min nj_avg :    23    17 20.46
    248    0.001053988836262    0.0  163.69     -31.566155907826    -550.185036345175    -550.185036345175    -550.111166336283    -550.123724819940   0.0000   0.0000  -0.0004  -0.0347
   MLWF step    5  Convergence =  1.279E-07  Generated
   nj_max nj_min nj_avg :    23    17 20.46
    249    0.001048553233601    0.0  164.09     -31.567624936909    -550.184877475443    -550.184877475443    -550.110826742430    -550.123728477373   0.0000   0.0000  -0.0004  -0.0356
   MLWF step    3  Convergence =  4.620E-07  Generated
   nj_max nj_min nj_avg :    23    17 20.46
    250    0.001042051391675    0.0  164.40     -31.569097154234    -550.184672329282    -550.184672329282    -550.110484778432    -550.123731444274   0.0000   0.0000  -0.0004  -0.0364
   MLWF step    4  Convergence =  8.423E-08  Generated
   nj_max nj_min nj_avg :    23    17 20.46
    251    0.001034285785800    0.0  164.60     -31.570574349902    -550.184420631556    -550.184420631556    -550.110140930923    -550.123734574253   0.0000   0.0000  -0.0004  -0.0373
   MLWF step    3  Convergence =  1.896E-08  Generated
   nj_max nj_min nj_avg :    22    17 20.45
    252    0.001028065683018    0.0  164.70     -31.572051977162    -550.184117468205    -550.184117468205    -550.109790946554    -550.123731004175   0.0000   0.0000  -0.0004  -0.0382
   MLWF step    5  Convergence =  1.395E-07  Generated
   nj_max nj_min nj_avg :    22    17 20.46
    253    0.001023846362221    0.0  164.71     -31.573541957873    -550.183776263018    -550.183776263018    -550.109448319760    -550.123734002240   0.0000   0.0000  -0.0004  -0.0391
   MLWF step    2  Convergence =  3.928E-07  Generated
   nj_max nj_min nj_avg :    22    17 20.46
    254    0.001022954297132    0.0  164.61     -31.575035268506    -550.183391540206    -550.183391540206    -550.109106713000    -550.123736163568   0.0000   0.0000  -0.0005  -0.0400
   MLWF step    4  Convergence =  4.366E-07  Generated
   nj_max nj_min nj_avg :    22    17 20.46
    255    0.001023854533128    0.0  164.42     -31.576526176501    -550.182962181716    -550.182962181716    -550.108763118798    -550.123736305755   0.0000   0.0000  -0.0005  -0.0409
   MLWF step    6  Convergence =  3.665E-07  Generated
   nj_max nj_min nj_avg :    22    17 20.46
    256    0.001028049570305    0.0  164.14     -31.578015003757    -550.182493267096    -550.182493267096    -550.108419871986    -550.123735582690   0.0000   0.0000  -0.0005  -0.0418
   MLWF step    2  Convergence =  9.278E-08  Generated
   nj_max nj_min nj_avg :    22    17 20.46
    257    0.001030466076956    0.0  163.78     -31.579498183717    -550.181985232838    -550.181985232838    -550.108074187410    -550.123736634867   0.0000   0.0000  -0.0005  -0.0427
   MLWF step    2  Convergence =  1.006E-07  Generated
   nj_max nj_min nj_avg :    22    17 20.46
    258    0.001030778885073    0.0  163.35     -31.580973970207    -550.181439175704    -550.181439175704    -550.107723925075    -550.123738028335   0.0000   0.0000  -0.0005  -0.0436
   MLWF step    4  Convergence =  5.410E-08  Generated
   nj_max nj_min nj_avg :    22    17 20.46
    259    0.001029982238340    0.0  162.85     -31.582441403299    -550.180856000159    -550.180856000159    -550.107367140855    -550.123737230485   0.0000   0.0000  -0.0005  -0.0446
   MLWF step    2  Convergence =  4.197E-07  Generated
   nj_max nj_min nj_avg :    22    17 20.46
    260    0.001025794129275    0.0  162.28     -31.583901574689    -550.180238247725    -550.180238247725    -550.107004144125    -550.123737258664   0.0000   0.0000  -0.0005  -0.0456
   MLWF step    2  Convergence =  4.964E-07  Generated
   nj_max nj_min nj_avg :    22    17 20.46
    261    0.001019502726318    0.0  161.66     -31.585354453713    -550.179587652058    -550.179587652058    -550.106635048720    -550.123737379736   0.0000   0.0000  -0.0005  -0.0465
   MLWF step    2  Convergence =  1.127E-07  Generated
   nj_max nj_min nj_avg :    22    17 20.46
    262    0.001012292590428    0.0  160.98     -31.586798596479    -550.178905455149    -550.178905455149    -550.106259869636    -550.123736876023   0.0000   0.0000  -0.0005  -0.0475
   MLWF step    2  Convergence =  2.253E-07  Generated
   nj_max nj_min nj_avg :    22    17 20.46
    263    0.001005755086001    0.0  160.25     -31.588232216981    -550.178193784000    -550.178193784000    -550.105879545795    -550.123735554097   0.0000   0.0000  -0.0005  -0.0485
   MLWF step    5  Convergence =  1.154E-07  Generated
   nj_max nj_min nj_avg :    22    17 20.46
    264    0.001007352307671    0.0  159.46     -31.589651282395    -550.177453648254    -550.177453648254    -550.105493565453    -550.123725903834   0.0000   0.0000  -0.0005  -0.0495
   MLWF step    2  Convergence =  4.779E-07  Generated
   nj_max nj_min nj_avg :    22    17 20.46
    265    0.001005482804726    0.0  158.63     -31.591055250135    -550.176690215660    -550.176690215660    -550.105104966249    -550.123723031262   0.0000   0.0000  -0.0005  -0.0505
   MLWF step    2  Convergence =  6.415E-08  Generated
   nj_max nj_min nj_avg :    22    17 20.46
    266    0.001005817830053    0.0  157.76     -31.592439792548    -550.175904723991    -550.175904723991    -550.104712146162    -550.123720132239   0.0000   0.0000  -0.0005  -0.0515
   MLWF step    2  Convergence =  3.363E-08  Generated
   nj_max nj_min nj_avg :    22    17 20.46
    267    0.001007410096616    0.0  156.86     -31.593801861252    -550.175098878674    -550.175098878674    -550.104313353819    -550.123716872812   0.0000   0.0000  -0.0005  -0.0526
   MLWF step    3  Convergence =  1.524E-07  Generated
   nj_max nj_min nj_avg :    22    17 20.46
    268    0.001012522035503    0.0  155.93     -31.595138640791    -550.174273404812    -550.174273404812    -550.103905486083    -550.123708356708   0.0000   0.0000  -0.0005  -0.0536
   MLWF step    2  Convergence =  2.014E-08  Generated
   nj_max nj_min nj_avg :    22    17 20.46
    269    0.001015077399144    0.0  154.99     -31.596454192261    -550.173434778165    -550.173434778165    -550.103491133394    -550.123703716315   0.0000   0.0000  -0.0005  -0.0547
   MLWF step    3  Convergence =  2.685E-07  Generated
   nj_max nj_min nj_avg :    22    17 20.46
    270    0.001019941697534    0.0  154.05     -31.597746246109    -550.172582536614    -550.172582536614    -550.103066176762    -550.123694425683   0.0000   0.0000  -0.0005  -0.0558
   MLWF step    7  Convergence =  1.915E-07  Generated
   nj_max nj_min nj_avg :    22    17 20.46
    271    0.001041119849389    0.0  153.10     -31.599015942691    -550.171719809724    -550.171719809724    -550.102630494575    -550.123666805718   0.0000   0.0000  -0.0005  -0.0568
   MLWF step    2  Convergence =  4.119E-07  Generated
   nj_max nj_min nj_avg :    22    17 20.45
    272    0.001041125967291    0.0  152.16     -31.600264007187    -550.170850299818    -550.170850299818    -550.102184973494    -550.123659661470   0.0000   0.0000  -0.0005  -0.0579
   MLWF step    3  Convergence =  4.779E-07  Generated
   nj_max nj_min nj_avg :    22    17 20.45
    273    0.001044635316211    0.0  151.23     -31.601488281900    -550.169976009447    -550.169976009447    -550.101729128071    -550.123648246653   0.0000   0.0000  -0.0006  -0.0590
   MLWF step    2  Convergence =  2.286E-07  Generated
   nj_max nj_min nj_avg :    22    17 20.45
    274    0.001044575961007    0.0  150.32     -31.602687012215    -550.169100891281    -550.169100891281    -550.101264554521    -550.123641623661   0.0000   0.0000  -0.0006  -0.0602
   MLWF step    3  Convergence =  1.586E-07  Generated
   nj_max nj_min nj_avg :    22    17 20.45
    275    0.001049625362088    0.0  149.44     -31.603852228039    -550.168223499894    -550.168223499894    -550.100787369073    -550.123627604308   0.0000   0.0000  -0.0006  -0.0613
   MLWF step    4  Convergence =  1.818E-07  Generated
   nj_max nj_min nj_avg :    22    17 20.45
    276    0.001061835862653    0.0  148.58     -31.604984599741    -550.167351097316    -550.167351097316    -550.100302151043    -550.123609067236   0.0000   0.0000  -0.0006  -0.0624
   MLWF step    5  Convergence =  2.942E-07  Generated
   nj_max nj_min nj_avg :    22    17 20.45
    277    0.001081141660074    0.0  147.76     -31.606078540833    -550.166483953834    -550.166483953834    -550.099806176211    -550.123583684596   0.0000   0.0000  -0.0006  -0.0636
   MLWF step    5  Convergence =  3.282E-07  Generated
   nj_max nj_min nj_avg :    22    17 20.45
    278    0.001101514303328    0.0  146.98     -31.607134264225    -550.165626715823    -550.165626715823    -550.099300822961    -550.123559172911   0.0000   0.0000  -0.0006  -0.0647
   MLWF step    2  Convergence =  1.208E-07  Generated
   nj_max nj_min nj_avg :    22    17 20.45
    279    0.001107016306535    0.0  146.25     -31.608151336382    -550.164781720487    -550.164781720487    -550.098785008207    -550.123550675218   0.0000   0.0000  -0.0006  -0.0659
   MLWF step    2  Convergence =  4.573E-10  Generated
   nj_max nj_min nj_avg :    22    17 20.45
    280    0.001111938784973    0.0  145.57     -31.609130311324    -550.163950846892    -550.163950846892    -550.098257197824    -550.123542633181   0.0000   0.0000  -0.0006  -0.0671
   MLWF step    3  Convergence =  3.800E-07  Generated
   nj_max nj_min nj_avg :    22    17 20.45
    281    0.001121252264707    0.0  144.97     -31.610072730478    -550.163136190690    -550.163136190690    -550.097716229055    -550.123529157653   0.0000   0.0000  -0.0006  -0.0683
   MLWF step    5  Convergence =  8.883E-08  Generated
   nj_max nj_min nj_avg :    22    17 20.45
    282    0.001141024763066    0.0  144.43     -31.610980589998    -550.162340478826    -550.162340478826    -550.097161821859    -550.123504120872   0.0000   0.0000  -0.0006  -0.0695
   MLWF step    2  Convergence =  7.801E-08  Generated
   nj_max nj_min nj_avg :    22    17 20.44
    283    0.001145107450792    0.0  143.98     -31.611852907451    -550.161564496168    -550.161564496168    -550.096592033686    -550.123491924904   0.0000   0.0000  -0.0006  -0.0707
   MLWF step    2  Convergence =  1.950E-07  Generated
   nj_max nj_min nj_avg :    22    17 20.43
    284    0.001148565175714    0.0  143.60     -31.612695336955    -550.160817125660    -550.160817125660    -550.096013265165    -550.123484076864   0.0000   0.0000  -0.0006  -0.0719
   MLWF step    2  Convergence =  4.314E-07  Generated
   nj_max nj_min nj_avg :    22    17 20.44
    285    0.001151755290110    0.0  143.32     -31.613501119794    -550.160096570905    -550.160096570905    -550.095421409400    -550.123476260306   0.0000   0.0000  -0.0006  -0.0732
   MLWF step    8  Convergence =  1.908E-07  Generated
   nj_max nj_min nj_avg :    22    17 20.43
    286    0.001183913517821    0.0  143.13     -31.614264910139    -550.159403645965    -550.159403645965    -550.094815061095    -550.123437960146   0.0000   0.0000  -0.0006  -0.0744
   MLWF step    2  Convergence =  3.271E-07  Generated
   nj_max nj_min nj_avg :    22    17 20.43
    287    0.001188318951669    0.0  143.03     -31.614985605542    -550.158743786045    -550.158743786045    -550.094197465762    -550.123429248961   0.0000   0.0000  -0.0006  -0.0757
   MLWF step    2  Convergence =  3.204E-07  Generated
   nj_max nj_min nj_avg :    22    17 20.42
    288    0.001193363423790    0.0  143.04     -31.615658749474    -550.158118635315    -550.158118635315    -550.093568080292    -550.123421280306   0.0000   0.0000  -0.0006  -0.0770
   MLWF step    4  Convergence =  1.719E-07  Generated
   nj_max nj_min nj_avg :    22    17 20.43
    289    0.001206595301373    0.0  143.16     -31.616283073579    -550.157531846119    -550.157531846119    -550.092928380203    -550.123408053939   0.0000   0.0000  -0.0006  -0.0782
   MLWF step    4  Convergence =  2.559E-07  Generated
   nj_max nj_min nj_avg :    22    17 20.43
    290    0.001220797748435    0.0  143.39     -31.616852484307    -550.156980815060    -550.156980815060    -550.092273629075    -550.123392108246   0.0000   0.0000  -0.0007  -0.0795
   MLWF step    5  Convergence =  1.866E-07  Generated
   nj_max nj_min nj_avg :    22    17 20.43
    291    0.001239059643792    0.0  143.74     -31.617369474913    -550.156469992989    -550.156469992989    -550.091606231808    -550.123372803349   0.0000   0.0000  -0.0007  -0.0808
   MLWF step    5  Convergence =  3.957E-07  Generated
   nj_max nj_min nj_avg :    22    17 20.43
    292    0.001257334243777    0.0  144.20     -31.617835040058    -550.156001257217    -550.156001257217    -550.090926145622    -550.123354173965   0.0000   0.0000  -0.0007  -0.0822
   MLWF step    2  Convergence =  9.224E-08  Generated
   nj_max nj_min nj_avg :    22    17 20.43
    293    0.001264826035195    0.0  144.80     -31.618250837245    -550.155576687397    -550.155576687397    -550.090233681864    -550.123347344977   0.0000   0.0000  -0.0007  -0.0835
   MLWF step    2  Convergence =  3.511E-07  Generated
   nj_max nj_min nj_avg :    22    17 20.43
    294    0.001271943981223    0.0  145.52     -31.618617801767    -550.155197801464    -550.155197801464    -550.089528753710    -550.123341826887   0.0000   0.0000  -0.0007  -0.0848
   MLWF step    4  Convergence =  2.580E-07  Generated
   nj_max nj_min nj_avg :    22    17 20.44
    295    0.001285502899002    0.0  146.37     -31.618935959158    -550.154865813221    -550.154865813221    -550.088811135782    -550.123330575600   0.0000   0.0000  -0.0007  -0.0862
   MLWF step    2  Convergence =  2.501E-07  Generated
   nj_max nj_min nj_avg :    22    17 20.45
    296    0.001293711523617    0.0  147.36     -31.619204041306    -550.154581396081    -550.154581396081    -550.088080226653    -550.123324768864   0.0000   0.0000  -0.0007  -0.0876
   MLWF step    2  Convergence =  3.854E-07  Generated
   nj_max nj_min nj_avg :    22    17 20.45
    297    0.001302119068890    0.0  148.49     -31.619421271738    -550.154346010893    -550.154346010893    -550.087336377243    -550.123319190321   0.0000   0.0000  -0.0007  -0.0889
   MLWF step    3  Convergence =  2.051E-07  Generated
   nj_max nj_min nj_avg :    22    17 20.45
    298    0.001313645512585    0.0  149.76     -31.619589505097    -550.154163569351    -550.154163569351    -550.086582557839    -550.123313868292   0.0000   0.0000  -0.0007  -0.0903
   MLWF step    3  Convergence =  4.717E-07  Generated
   nj_max nj_min nj_avg :    22    17 20.45
    299    0.001326374690484    0.0  151.16     -31.619699532401    -550.154026494096    -550.154026494096    -550.085810422326    -550.123302348455   0.0000   0.0000  -0.0007  -0.0917
   MLWF step    5  Convergence =  2.365E-07  Generated
   nj_max nj_min nj_avg :    22    17 20.45
    300    0.001346380619594    0.0  152.71     -31.619759198229    -550.153943160902    -550.153943160902    -550.085027750454    -550.123286310640   0.0000   0.0000  -0.0007  -0.0931

   writing restart file: ./water_50.save
   restart file written in    1.574 sec.

   MLWF step    2  Convergence =  3.957E-07  Generated
   nj_max nj_min nj_avg :    22    17 20.45
    301    0.001357954786480    0.0  154.41     -31.619770343478    -550.153915042543    -550.153915042543    -550.084235584756    -550.123282478628   0.0000   0.0000  -0.0007  -0.0946
   MLWF step    3  Convergence =  1.693E-07  Generated
   nj_max nj_min nj_avg :    22    17 20.45
    302    0.001373009428605    0.0  156.24     -31.619727088131    -550.153935345752    -550.153935345752    -550.083426854571    -550.123271840583   0.0000   0.0000  -0.0007  -0.0960
   MLWF step    3  Convergence =  6.025E-08  Generated
   nj_max nj_min nj_avg :    22    17 20.45
    303    0.001389666008747    0.0  158.23     -31.619636176065    -550.154009617312    -550.154009617312    -550.082606967050    -550.123261651108   0.0000   0.0000  -0.0007  -0.0974
   MLWF step    2  Convergence =  3.176E-07  Generated
   nj_max nj_min nj_avg :    22    17 20.45
    304    0.001404273894799    0.0  160.35     -31.619497754842    -550.154137076845    -550.154137076845    -550.081775129136    -550.123254734251   0.0000   0.0000  -0.0007  -0.0989
   MLWF step    9  Convergence =  7.623E-08  Generated
   nj_max nj_min nj_avg :    22    17 20.45
    305    0.001446700974877    0.0  162.62     -31.619310309583    -550.154315892389    -550.154315892389    -550.080929622401    -550.123219467737   0.0000   0.0000  -0.0007  -0.1004
   MLWF step    5  Convergence =  3.122E-08  Generated
   nj_max nj_min nj_avg :    22    17 20.45
    306    0.001475360496979    0.0  165.03     -31.619075137944    -550.154547788710    -550.154547788710    -550.080072422240    -550.123199375699   0.0000   0.0000  -0.0007  -0.1019
   MLWF step    4  Convergence =  4.022E-07  Generated
   nj_max nj_min nj_avg :    22    17 20.45
    307    0.001500819023334    0.0  167.59     -31.618790316616    -550.154831868533    -550.154831868533    -550.079203038623    -550.123183361998   0.0000   0.0000  -0.0007  -0.1033
   MLWF step    2  Convergence =  3.599E-07  Generated
   nj_max nj_min nj_avg :    22    17 20.44
    308    0.001519266484197    0.0  170.29     -31.618452628970    -550.155166121671    -550.155166121671    -550.078320046736    -550.123173771187   0.0000   0.0000  -0.0008  -0.1049
   MLWF step    4  Convergence =  2.696E-07  Generated
   nj_max nj_min nj_avg :    22    17 20.45
    309    0.001545525124479    0.0  173.12     -31.618064833384    -550.155554127607    -550.155554127607    -550.077427804901    -550.123160097439   0.0000   0.0000  -0.0008  -0.1064
   MLWF step    2  Convergence =  2.292E-07  Generated
   nj_max nj_min nj_avg :    22    17 20.44
    310    0.001565557272701    0.0  176.10     -31.617617791126    -550.155986872026    -550.155986872026    -550.076518273718    -550.123148295247   0.0000   0.0000  -0.0008  -0.1079
   MLWF step    2  Convergence =  4.223E-07  Generated
   nj_max nj_min nj_avg :    22    17 20.45
    311    0.001586062883324    0.0  179.21     -31.617120460954    -550.156472246918    -550.156472246918    -550.075600504020    -550.123140668532   0.0000   0.0000  -0.0008  -0.1094
   MLWF step    4  Convergence =  3.985E-07  Generated
   nj_max nj_min nj_avg :    22    17 20.45
    312    0.001615717146051    0.0  182.45     -31.616567414045    -550.157002858168    -550.157002858168    -550.074668420783    -550.123122415172   0.0000   0.0000  -0.0008  -0.1110
   MLWF step    3  Convergence =  5.029E-08  Generated
   nj_max nj_min nj_avg :    22    17 20.44
    313    0.001642948226446    0.0  185.82     -31.615960789218    -550.157578149001    -550.157578149001    -550.073722919342    -550.123105943489   0.0000   0.0000  -0.0008  -0.1125
   MLWF step    2  Convergence =  7.761E-08  Generated
   nj_max nj_min nj_avg :    22    17 20.44
    314    0.001666699968426    0.0  189.32     -31.615306229713    -550.158201154376    -550.158201154376    -550.072768599139    -550.123096841382   0.0000   0.0000  -0.0008  -0.1141
   MLWF step    2  Convergence =  2.109E-07  Generated
   nj_max nj_min nj_avg :    22    17 20.44
    315    0.001691085362039    0.0  192.93     -31.614601107141    -550.158866303475    -550.158866303475    -550.071801559649    -550.123087017114   0.0000   0.0000  -0.0008  -0.1157
   MLWF step    3  Convergence =  4.196E-07  Generated
   nj_max nj_min nj_avg :    22    17 20.44
    316    0.001721048069256    0.0  196.67     -31.613846271948    -550.159572213170    -550.159572213170    -550.070822203503    -550.123071839523   0.0000   0.0000  -0.0008  -0.1173
   MLWF step    3  Convergence =  4.439E-07  Generated
   nj_max nj_min nj_avg :    22    17 20.44
    317    0.001752816952574    0.0  200.51     -31.613042595692    -550.160317722488    -550.160317722488    -550.069831292496    -550.123055738288   0.0000   0.0000  -0.0008  -0.1189
   MLWF step    2  Convergence =  6.003E-08  Generated
   nj_max nj_min nj_avg :    22    17 20.43
    318    0.001780460389496    0.0  204.47     -31.612189807924    -550.161100541710    -550.161100541710    -550.068828620051    -550.123044320838   0.0000   0.0000  -0.0008  -0.1205
   MLWF step    5  Convergence =  2.001E-07  Generated
   nj_max nj_min nj_avg :    22    17 20.42
    319    0.001825040401950    0.0  208.53     -31.611286708437    -550.161917121411    -550.161917121411    -550.067812894897    -550.123015100448   0.0000   0.0000  -0.0008  -0.1221
   MLWF step    3  Convergence =  1.968E-07  Generated
   nj_max nj_min nj_avg :    22    17 20.42
    320    0.001860203229934    0.0  212.69     -31.610335679877    -550.162766836490    -550.162766836490    -550.066785923022    -550.122996085833   0.0000   0.0000  -0.0008  -0.1238
   MLWF step    2  Convergence =  4.685E-07  Generated
   nj_max nj_min nj_avg :    22    17 20.42
    321    0.001890474347155    0.0  216.94     -31.609339183935    -550.163648176461    -550.163648176461    -550.065748777095    -550.122983653466   0.0000   0.0000  -0.0008  -0.1254
   MLWF step    5  Convergence =  4.221E-07  Generated
   nj_max nj_min nj_avg :    22    17 20.42
    322    0.001939372643331    0.0  221.28     -31.608297499521    -550.164556797035    -550.164556797035    -550.064699814230    -550.122952448904   0.0000   0.0000  -0.0008  -0.1271
   MLWF step    2  Convergence =  1.783E-07  Generated
   nj_max nj_min nj_avg :    22    17 20.42
    323    0.001971729069424    0.0  225.70     -31.607214705786    -550.165491274160    -550.165491274160    -550.063640393353    -550.122938783286   0.0000   0.0000  -0.0008  -0.1288
   MLWF step    3  Convergence =  2.190E-07  Generated
   nj_max nj_min nj_avg :    22    17 20.41
    324    0.002010833991067    0.0  230.19     -31.606090861231    -550.166446024239    -550.166446024239    -550.062567768385    -550.122916377168   0.0000   0.0000  -0.0008  -0.1305
   MLWF step    2  Convergence =  2.447E-07  Generated
   nj_max nj_min nj_avg :    22    17 20.41
    325    0.002044678173359    0.0  234.75     -31.604932948958    -550.167422794551    -550.167422794551    -550.061486571665    -550.122901601290   0.0000   0.0000  -0.0009  -0.1321
   MLWF step    2  Convergence =  1.087E-07  Generated
   nj_max nj_min nj_avg :    22    17 20.41
    326    0.002078780539574    0.0  239.37     -31.603742046520    -550.168417945403    -550.168417945403    -550.060396111204    -550.122887944692   0.0000   0.0000  -0.0009  -0.1339
   MLWF step    7  Convergence =  3.500E-08  Generated
   nj_max nj_min nj_avg :    22    17 20.41
    327    0.002149381275091    0.0  244.05     -31.602516587236    -550.169426231496    -550.169426231496    -550.059294184113    -550.122836633856   0.0000   0.0000  -0.0009  -0.1356
   MLWF step    8  Convergence =  3.547E-08  Generated
   nj_max nj_min nj_avg :    22    17 20.41
    328    0.002229643929296    0.0  248.77     -31.601257877620    -550.170446276483    -550.170446276483    -550.058182587959    -550.122775940776   0.0000   0.0000  -0.0009  -0.1373
   MLWF step    5  Convergence =  2.007E-07  Generated
   nj_max nj_min nj_avg :    22    17 20.41
    329    0.002287182614473    0.0  253.54     -31.599966408889    -550.171475667209    -550.171475667209    -550.057062239088    -550.122738772797   0.0000   0.0000  -0.0009  -0.1390
   MLWF step    6  Convergence =  5.203E-08  Generated
   nj_max nj_min nj_avg :    22    17 20.41
    330    0.002352010673157    0.0  258.33     -31.598640104218    -550.172509779971    -550.172509779971    -550.055931998410    -550.122693548293   0.0000   0.0000  -0.0009  -0.1408
   MLWF step    3  Convergence =  1.400E-07  Generated
   nj_max nj_min nj_avg :    22    17 20.41
    331    0.002394449630785    0.0  263.15     -31.597280013123    -550.173546615331    -550.173546615331    -550.054793477080    -550.122671091920   0.0000   0.0000  -0.0009  -0.1426
   MLWF step    3  Convergence =  1.255E-07  Generated
   nj_max nj_min nj_avg :    22    17 20.41
    332    0.002436470416974    0.0  267.99     -31.595886754464    -550.174583107543    -550.174583107543    -550.053647292166    -550.122649547704   0.0000   0.0000  -0.0009  -0.1443
   MLWF step    2  Convergence =  2.274E-07  Generated
   nj_max nj_min nj_avg :    22    17 20.41
    333    0.002471988650876    0.0  272.83     -31.594463462910    -550.175618341525    -550.175618341525    -550.052496220574    -550.122637236652   0.0000   0.0000  -0.0009  -0.1461
   MLWF step    2  Convergence =  4.553E-07  Generated
   nj_max nj_min nj_avg :    22    17 20.41
    334    0.002507377924209    0.0  277.68     -31.593006240954    -550.176643855759    -550.176643855759    -550.051335447394    -550.122622391265   0.0000   0.0000  -0.0009  -0.1479
   MLWF step    7  Convergence =  1.879E-07  Generated
   nj_max nj_min nj_avg :    22    17 20.41
    335    0.002575817426089    0.0  282.52     -31.591519476256    -550.177659096384    -550.177659096384    -550.050167990058    -550.122574232005   0.0000   0.0000  -0.0009  -0.1497
   MLWF step    2  Convergence =  2.515E-07  Generated
   nj_max nj_min nj_avg :    22    17 20.41
    336    0.002611747863106    0.0  287.34     -31.590006052959    -550.178662292684    -550.178662292684    -550.048995579014    -550.122559392378   0.0000   0.0000  -0.0009  -0.1515
   MLWF step    2  Convergence =  4.959E-07  Generated
   nj_max nj_min nj_avg :    22    17 20.41
    337    0.002647481144287    0.0  292.13     -31.588466549832    -550.179649741915    -550.179649741915    -550.047817981011    -550.122544633061   0.0000   0.0000  -0.0009  -0.1533
   MLWF step    3  Convergence =  3.906E-07  Generated
   nj_max nj_min nj_avg :    22    17 20.41
    338    0.002688372091333    0.0  296.90     -31.586902134642    -550.180618527773    -550.180618527773    -550.046635775426    -550.122524447013   0.0000   0.0000  -0.0009  -0.1552
   MLWF step    6  Convergence =  7.634E-08  Generated
   nj_max nj_min nj_avg :    22    17 20.42
    339    0.002748524131704    0.0  301.63     -31.585319691337    -550.181571491104    -550.181571491104    -550.045455381374    -550.122490381233   0.0000   0.0000  -0.0009  -0.1570
   MLWF step    4  Convergence =  3.069E-07  Generated
   nj_max nj_min nj_avg :    22    17 20.42
    340    0.002795434626194    0.0  306.31     -31.583708143356    -550.182493699916    -550.182493699916    -550.044265562399    -550.122462896300   0.0000   0.0000  -0.0009  -0.1589
   MLWF step    3  Convergence =  4.606E-07  Generated
   nj_max nj_min nj_avg :    22    17 20.42
    341    0.002835407096985    0.0  310.93     -31.582076964433    -550.183390002451    -550.183390002451    -550.043074977429    -550.122443505231   0.0000   0.0000  -0.0009  -0.1608
   MLWF step    6  Convergence =  1.742E-07  Generated
   nj_max nj_min nj_avg :    22    17 20.42
    342    0.002893921973881    0.0  315.49     -31.580423880646    -550.184252838698    -550.184252838698    -550.041879949128    -550.122402171429   0.0000   0.0000  -0.0009  -0.1626
   MLWF step    2  Convergence =  2.240E-07  Generated
   nj_max nj_min nj_avg :    22    17 20.42
    343    0.002927432179446    0.0  319.98     -31.578756896186    -550.185084443382    -550.185084443382    -550.040686593932    -550.122387643912   0.0000   0.0000  -0.0009  -0.1645
   MLWF step    5  Convergence =  4.171E-07  Generated
   nj_max nj_min nj_avg :    22    17 20.41
    344    0.002978811253269    0.0  324.39     -31.577074337702    -550.185876976792    -550.185876976792    -550.039490869255    -550.122352057801   0.0000   0.0000  -0.0010  -0.1664
   MLWF step    4  Convergence =  7.741E-08  Generated
   nj_max nj_min nj_avg :    22    17 20.41
    345    0.003024536466555    0.0  328.70     -31.575385556431    -550.186633673419    -550.186633673419    -550.038299651793    -550.122324831552   0.0000   0.0000  -0.0010  -0.1684
   MLWF step    2  Convergence =  1.941E-07  Generated
   nj_max nj_min nj_avg :    22    17 20.39
    346    0.003057814815658    0.0  332.92     -31.573691043012    -550.187349303536    -550.187349303536    -550.037111163307    -550.122309969325   0.0000   0.0000  -0.0010  -0.1703
   MLWF step    3  Convergence =  2.721E-07  Generated
   nj_max nj_min nj_avg :    22    17 20.38
    347    0.003095817952395    0.0  337.04     -31.571991628202    -550.188019755579    -550.188019755579    -550.035924561502    -550.122288419754   0.0000   0.0000  -0.0010  -0.1722
   MLWF step    2  Convergence =  1.033E-07  Generated
   nj_max nj_min nj_avg :    22    17 20.38
    348    0.003128018997582    0.0  341.04     -31.570290512336    -550.188644123181    -550.188644123181    -550.034742075564    -550.122271877484   0.0000   0.0000  -0.0010  -0.1742
   MLWF step    5  Convergence =  2.010E-07  Generated
   nj_max nj_min nj_avg :    22    17 20.38
    349    0.003176913322475    0.0  344.93     -31.568589861179    -550.189221349615    -550.189221349615    -550.033565721778    -550.122238780597   0.0000   0.0000  -0.0010  -0.1761
   MLWF step    3  Convergence =  6.646E-09  Generated
   nj_max nj_min nj_avg :    22    17 20.38
    350    0.003213011509852    0.0  348.69     -31.566889963108    -550.189749236972    -550.189749236972    -550.032396382382    -550.122218398773   0.0000   0.0000  -0.0010  -0.1781
   MLWF step    2  Convergence =  3.065E-07  Generated
   nj_max nj_min nj_avg :    22    17 20.38
    351    0.003242079796523    0.0  352.32     -31.565192765277    -550.190227614807    -550.190227614807    -550.031237017644    -550.122206807004   0.0000   0.0000  -0.0010  -0.1801
   MLWF step    2  Convergence =  2.815E-07  Generated
   nj_max nj_min nj_avg :    22    17 20.38
    352    0.003269657283233    0.0  355.81     -31.563494049534    -550.190650320736    -550.190650320736    -550.030084647544    -550.122194352160   0.0000   0.0000  -0.0010  -0.1821
   MLWF step    2  Convergence =  2.831E-07  Generated
   nj_max nj_min nj_avg :    22    17 20.38
    353    0.003296420790173    0.0  359.15     -31.561793934037    -550.191015317513    -550.191015317513    -550.028940423183    -550.122180361956   0.0000   0.0000  -0.0010  -0.1841
   MLWF step   12  Convergence =  6.955E-08  Generated
   nj_max nj_min nj_avg :    22    17 20.38
[...]
   O      -0.30044753526551E-03    -0.69736239400893E-04     0.20703397302732E-03
   O      -0.77298406048426E-04    -0.64661082423030E-04    -0.44636513905735E-04
   O      -0.40083213986456E-03     0.10561881066589E-03     0.84841339579521E-04
   O       0.28179969189960E-03     0.14700305591053E-03     0.29730111750175E-04
   O      -0.64062626410044E-04     0.29956983395834E-03     0.29668468964067E-03
   O      -0.26034508803113E-03    -0.24945231112558E-03    -0.12767634040622E-03
   O      -0.40483871282940E-05     0.36327926771632E-05     0.29104688668248E-04
   O       0.93669655678636E-04     0.41159640837497E-03    -0.24174265351681E-03
   O       0.14319371695772E-03    -0.27678700163363E-03    -0.27905938503174E-03
   O       0.25510418490638E-03    -0.23778080683684E-03    -0.73462428405386E-04
   O       0.56262248630543E-05    -0.16435038677319E-03    -0.39849749851828E-03
   O      -0.11423136529306E-03    -0.79334038805045E-04     0.12085480035210E-03
   O      -0.67148449597917E-04     0.18192681177758E-03     0.60978972135547E-04
   O      -0.16646447875077E-03    -0.26880346305640E-03     0.62797810000457E-04
   O       0.12773441853018E-03     0.45757626146829E-04     0.44559528357116E-03
   O       0.54938796244383E-04     0.44175250700954E-04     0.14365247936100E-04
   H      -0.12453391085836E-03    -0.29808997594066E-03    -0.98116749915453E-03
   H       0.47217625145031E-03    -0.56796899050194E-03     0.81541960415284E-04
   H       0.16866981671985E-03    -0.22303025899048E-03     0.20149866180926E-03
   H       0.93439418985203E-04    -0.55614733918697E-03     0.18007521357433E-04
   H      -0.18520578363971E-03    -0.12213088581475E-03     0.12622653010866E-03
   H       0.11401361769995E-02     0.11931956377929E-02    -0.35847636965812E-03
   H       0.28602275559574E-03     0.32183950284530E-03     0.20319749126684E-03
   H      -0.87442930711861E-03    -0.14878653484594E-03     0.93341350804915E-04
   H       0.24230223718362E-03    -0.31590420536562E-03    -0.33270343754214E-03
   H      -0.25119900412424E-03    -0.20659207927628E-03    -0.86905897233770E-03
   H      -0.82666609778765E-03     0.32531499644808E-03     0.26290218112558E-03
   H       0.14795039094951E-03     0.17254779815146E-03     0.25650551220039E-03
   H       0.74274974710053E-04    -0.57288237682602E-04     0.36634828102874E-03
   H      -0.14148132999967E-04     0.73726849441145E-04    -0.81418623908331E-03
   H       0.13773405998370E-04     0.28373401968261E-03    -0.81910598347130E-04
   H      -0.32025366244474E-03     0.42466239738952E-03     0.90731923863938E-03
   H      -0.18037560413552E-03     0.17349086967175E-03     0.30309083172649E-03
   H      -0.59768083530416E-04    -0.27834871994147E-03    -0.28676753626830E-03
   H      -0.12078522028993E-03    -0.13179076305427E-03     0.50479586423380E-04
   H       0.87650658032692E-03     0.37554266213485E-03     0.11836012266128E-03
   H      -0.22800174447094E-03     0.90612885772984E-03    -0.10161693493797E-03
   H       0.35169251975019E-03    -0.12542577401771E-02     0.53957404630434E-03
   H      -0.14379014224467E-03     0.78271507088666E-03     0.11910547731015E-03
   H       0.12419712911722E-02    -0.61538520524685E-03     0.10594129169766E-02
   H      -0.59358867526725E-04    -0.17992918953466E-03    -0.11600892565630E-03
   H      -0.14793942133619E-03    -0.54028225374330E-03     0.19615397328568E-03
   H      -0.10716332856340E-03    -0.36803114525632E-03     0.19128851044823E-03
   H      -0.29386109060708E-03     0.19255422580754E-03     0.25686013233892E-04
   H      -0.28664437318461E-04     0.38470058724335E-03    -0.98526424443162E-03
   H      -0.31011528919898E-03    -0.41983504752741E-03    -0.89602921249987E-03
   H       0.20572703444925E-03    -0.10319062643601E-03    -0.20193905579196E-03
   H       0.54292603742014E-03    -0.33804574125840E-03     0.27273016130768E-03
   H       0.30097170195652E-03    -0.91320581200961E-03     0.13156717762866E-02
   H       0.45383894183043E-03    -0.72487258505714E-03    -0.12804066583880E-03
   H       0.95142892462859E-04     0.89187722558799E-03    -0.11429688503599E-02
   H      -0.93693196736857E-04    -0.16793704409750E-03    -0.47627400651855E-03
   H      -0.47250403731307E-04     0.62633621921559E-04    -0.19786592503929E-03
   H      -0.10361211161619E-03    -0.41404298053600E-03    -0.35106716734231E-03
   H       0.13545774027270E-03     0.45930514073693E-03     0.99028456458140E-04
   H      -0.75038572884845E-03     0.50317904257435E-03    -0.28400875729351E-03
   H      -0.24832217205919E-03    -0.23505829936085E-03     0.11426263934341E-03
   H      -0.20666425258414E-03     0.12710124600738E-02     0.63730654076839E-03
   H      -0.44131580418718E-03     0.54229019881552E-03    -0.18245676152783E-03
   H      -0.46138532343148E-03    -0.18260331118336E-03     0.47123779371957E-03
   H       0.18179037102711E-03    -0.41989015860192E-03     0.48807974537119E-03
   H      -0.40425316391219E-03     0.62111236567651E-03     0.10595687473644E-04
   H      -0.97787603090055E-03     0.61995002273881E-03     0.60177463705018E-03
   H      -0.45176876028903E-03    -0.43788336025354E-03     0.66584834570699E-03
   H       0.14470953728840E-02     0.10166491043900E-04     0.26062968549035E-03
   H      -0.21940499393237E-03     0.61751018319612E-03    -0.80114776989844E-03
   H      -0.15385470015407E-03    -0.34155546160663E-03     0.15775768440444E-03
   H      -0.10868658762248E-03     0.62373916730817E-04     0.18808358841597E-03
   H       0.50659436501708E-03    -0.31055790977741E-03    -0.17443014979572E-03
   H       0.37748729509089E-03     0.14865354450064E-03    -0.31397896420736E-03
   H      -0.62304895960536E-03     0.11586218294788E-02     0.19226037246696E-03
   H       0.95672510170312E-03    -0.20540713860602E-03    -0.13378638318529E-05
   H       0.83657309911926E-04     0.83869901572430E-03    -0.89700229359518E-04
   H      -0.20966478098615E-03     0.20961279228935E-03     0.16901247804621E-03
   H       0.11085742793356E-02     0.28627160569446E-03    -0.63685069083363E-04
   H       0.24697438201663E-03    -0.54210090267627E-03    -0.46521361224761E-03
   H       0.35655286344944E-03     0.20193439044028E-03    -0.14611790141463E-03
   H      -0.50936928442026E-03    -0.33007125127842E-03     0.64419020033778E-03
   H       0.11705360556770E-03     0.36840964562476E-03     0.32067589563859E-03
   H       0.26614181919197E-03    -0.11815998707215E-04     0.10548625407612E-03
 
   Forces acting on atoms (au):
   O       0.33495241746859E-01    -0.19816379706625E-01     0.23589892595356E-02
   O       0.12262943025799E-01     0.61775853380590E-02    -0.23125883014219E-01
   O       0.67558299542474E-02     0.96335170139864E-02    -0.30934057837251E-01
   O       0.10930866684480E-01    -0.34795281322360E-02     0.60011912679244E-02
   O       0.11462219344506E-01     0.19886898264217E-01    -0.24863553041700E-02
   O      -0.14696105626648E-01     0.56145448771228E-02    -0.10446763906818E-01
   O      -0.46500189543367E-02    -0.38970312116337E-02     0.32686705090024E-02
   O       0.33576666227476E-01    -0.24180181738301E-01     0.13985949309817E-01
   O       0.80928198632664E-02    -0.29724036346546E-02     0.13207538053796E-01
   O       0.30327840549907E-02    -0.24369787258745E-01     0.14789455808567E-01
   O       0.54921189973421E-02     0.16276947523471E-02    -0.77821427855664E-02
   O       0.37465097158684E-01     0.52240179303411E-02     0.34921235922588E-01
   O       0.77635771269540E-02     0.78053192219287E-02     0.13908415129439E-02
   O      -0.41699242597928E-02     0.18919960416882E-01     0.11534199882228E-01
   O       0.25657627894123E-01     0.13037261506521E-02     0.23645910717798E-02
   O      -0.31988376328046E-01     0.40109879518870E-01    -0.94049402499985E-02
   O       0.45171511002543E-02    -0.30347182045933E-02     0.22060844786649E-01
   O       0.34059967293295E-02     0.86962463311482E-02     0.22426657441683E-01
   O      -0.21967611672579E-01    -0.26252514246486E-01     0.98393202834118E-02
   O       0.33816297735927E-01    -0.52648264576266E-02    -0.15473890552440E-01
   O      -0.10726549441260E-01    -0.46389411296882E-02    -0.17943846012861E-01
   O       0.64854439751045E-02     0.51059020706876E-01    -0.19144885245672E-02
   O       0.18478672261614E-01     0.21219347049660E-01     0.37718844609569E-01
   O      -0.12449323056105E-01    -0.16763924872045E-01    -0.11270827981286E-01
   O       0.84106344877819E-02     0.80812524896603E-02     0.13002283023616E-01
   O      -0.37130669798734E-02    -0.22594173971279E-01     0.17796083898974E-01
   O       0.24957311753514E-01    -0.13062185946353E-01    -0.20742497158901E-01
   O      -0.67601807646034E-02    -0.13610947000143E-01     0.22797303357984E-01
   O       0.42451589072906E-01     0.17255823273460E-01     0.11615439271972E-01
   O      -0.17204262787065E-01     0.11929207275397E-01    -0.12859351397135E-02
   O      -0.28654030194448E-02    -0.16775422960026E-02    -0.65072233507948E-02
   O       0.18379583228369E-01     0.16707615071669E-01    -0.22603516913852E-01
   H      -0.55315459581821E-02     0.10434546316237E-01    -0.54048814760107E-02
   H      -0.26307412066911E-01     0.44912452933165E-02     0.14514431930007E-02
   H       0.99513829695481E-02    -0.74449347619260E-02    -0.20375668696044E-02
   H      -0.18102641592447E-01     0.26723739178246E-02     0.16354983732135E-01
   H      -0.13426931716434E-01    -0.35569213853668E-02     0.20305807886302E-01
   H       0.28804679024711E-02    -0.42972181090963E-02    -0.29646497349775E-02
   H      -0.10047693474325E-01     0.19861503039800E-03    -0.32277335920046E-02
   H      -0.48399050962919E-03     0.10627308131717E-01     0.26152618241731E-02
   H      -0.13751376209078E-02     0.59386355180735E-02     0.77058833354572E-02
   H      -0.65577207714149E-02    -0.19336739510745E-01    -0.48586803723394E-02
   H      -0.10525984572584E-01    -0.45528253265715E-02    -0.20442646215320E-02
   H       0.24556704765870E-01    -0.37667761365483E-02     0.18812587604840E-01
   H      -0.78220719174885E-02     0.54537079627492E-02    -0.40030700932416E-02
   H       0.53316875795246E-02    -0.75803594677717E-03    -0.60258202432005E-02
   H      -0.14381218450117E-01     0.35467557689510E-02    -0.34662002305576E-02
   H      -0.12912903648940E-01     0.16387072498226E-01    -0.16866605495801E-01
   H      -0.96856545035452E-03    -0.74687101645666E-02    -0.88058279812789E-02
   H      -0.70108265541169E-02     0.24193325507720E-02    -0.52884396370393E-02
   H       0.54993377878776E-02    -0.12896616163599E-02    -0.18351021044438E-01
   H      -0.12079920314445E-01     0.18948246725528E-01    -0.19297842818147E-02
   H      -0.32438465662481E-03     0.63565309148763E-02     0.10735716322757E-01
   H      -0.25184412320310E-02    -0.87079262451869E-02     0.60326177062037E-02
   H      -0.24980557992113E-01    -0.15876259779005E-01    -0.14211172267027E-01
   H      -0.11550232018024E-01     0.15461937678961E-01    -0.79092979453463E-02
   H       0.21064864989739E-03     0.13506632418130E-02    -0.15635605389551E-03
   H      -0.53982639599737E-02    -0.10534557004905E-01    -0.32721712996017E-02
   H       0.47340875328032E-02     0.77144920726377E-02    -0.88625491386916E-03
   H       0.14707909249301E-02    -0.27555644199008E-01    -0.10240266271122E-01
   H      -0.57837710721045E-02     0.41025016150777E-05     0.13405119940228E-02
   H      -0.25414773468075E-01     0.66426887908120E-02    -0.18540463327243E-02
   H       0.28970528640500E-01    -0.24259370772949E-01    -0.72172260358385E-02
   H      -0.25220525210959E-02    -0.14317783223739E-01     0.21008120413183E-01
   H      -0.16947108012516E-01    -0.42483500907417E-02    -0.93001128217066E-02
   H       0.10549618814507E-01     0.21788608446850E-02    -0.13969694094341E-01
   H       0.29783875865893E-02    -0.84158950932160E-03    -0.18858396132528E-01
   H      -0.15665525820369E-01    -0.12025009194181E-01    -0.12528403546750E-01
   H       0.22160207416515E-01     0.26678207039059E-01    -0.53215615857249E-02
   H      -0.13644998997114E-02     0.78621162017565E-02     0.32217392784587E-02
   H      -0.16836036105251E-01    -0.50659103506857E-02     0.47595355257936E-02
   H      -0.14801007816543E-01     0.25918222336477E-02    -0.11231476537039E-02
   H       0.14542905195141E-02     0.71462047478891E-02     0.43250715743314E-02
   H       0.91149560746838E-02    -0.48026093425038E-03     0.20461735536633E-01
   H      -0.78261502784648E-02    -0.15411444177310E-01     0.13946492570631E-02
   H       0.41534562533720E-04    -0.37622912871206E-01     0.27923027238164E-02
   H      -0.50625941426404E-02    -0.13357578959332E-01    -0.16218948768815E-01
   H      -0.11672023853303E-01     0.76803834145034E-02    -0.14539891452210E-01
   H       0.17797443640770E-01    -0.15568093337330E-02     0.80084400443421E-02
   H      -0.18862396040490E-02     0.16406794456347E-01     0.19177305364286E-01
   H      -0.72012943204540E-02    -0.78546937202141E-02    -0.10406813414528E-01
   H      -0.64612348664063E-02    -0.44225753473084E-02     0.22824491078153E-02
   H       0.63712695846800E-02     0.14519180276134E-01    -0.52020926358747E-02
   H      -0.37022981195101E-03     0.11996604012606E-01    -0.90730375454363E-02
   H      -0.26076988223776E-01    -0.92613230746387E-03     0.19376143425611E-01
   H       0.62791461752756E-02     0.19554319729965E-01    -0.49101772404003E-02
   H      -0.98807693153811E-03     0.22626159836910E-02    -0.99853590046209E-02
   H       0.56291789594954E-02     0.44662498525699E-02    -0.10481638585864E-01
   H      -0.22904891229597E-01    -0.18566569201890E-01    -0.16804594600113E-02
   H      -0.23100193972012E-01     0.10461036893448E-02    -0.11903534249769E-01
   H       0.93302462608595E-02    -0.17819321121908E-02    -0.67233824280273E-02
   H       0.45808116413323E-02    -0.20164626550041E-01    -0.20805406573146E-02
   H       0.29510135180805E-03    -0.78336568194683E-02    -0.11491749638266E-02
   H       0.82178691441343E-03     0.70665542155548E-02    -0.31504397677595E-03
   H       0.85427107129248E-02    -0.53341572208050E-02     0.14496253479174E-01
   H      -0.16835043787973E-01    -0.10045178101330E-01     0.86428954398974E-02
 


   Partial temperatures (for each ionic specie) 
   Species  Temp (K)   Mean Square Displacement (a.u.)
        1   2.92E+02     1.5286E+00
        2   2.77E+02     1.7289E+00
   6165    0.003327967719921    0.0  285.32     -31.524711686668    -550.145115678997    -550.145115678997    -550.016358879888    -550.122366456449   0.0000   0.0000  -0.0002   1.9029
   MLWF step    5  Convergence =  1.566E-07  Generated

   writing restart file: ./water_50.save
   restart file written in    2.175 sec.



   Averaged Physical Quantities
                      accumulated      this run
   ekinc         :        1.36336       0.00365 (AU)
   ekin          :      405.20345     404.69194 (AU)
   epot          :     -985.49248    -985.52585 (AU)
   total energy  :     -549.01748    -550.15472 (AU)
   temperature   :      296.74164     304.90203 (K )
   enthalpy      :     -549.01748    -550.15472 (AU)
   econs         :     -548.88357    -550.01713 (AU)
   pressure      :        0.00000       0.00000 (Gpa)
   volume        :     6503.07682    6503.07682 (AU)



     Called by MAIN_LOOP:
     initialize   :      6.41s CPU      6.97s WALL (       1 calls)
     main_loop    :  82745.28s CPU  84090.23s WALL (    6000 calls)
     cpr_total    :  83251.85s CPU  84681.43s WALL (       1 calls)

     Called by INIT_RUN:
     init_readfil :      1.05s CPU      1.51s WALL (       1 calls)

     Called by CPR:
     cpr_md       :  83251.84s CPU  84681.42s WALL (    6000 calls)
     move_electro :  82500.39s CPU  83832.10s WALL (    6000 calls)
     wf_close_opt :    436.64s CPU    463.39s WALL (    6000 calls)

     Called by WANNIER_MODULES:
     wf_init      :      4.96s CPU      4.98s WALL (       1 calls)
     wf_close_opt :    436.64s CPU    463.39s WALL (    6000 calls)
     wf_1         :    280.16s CPU    302.36s WALL (    6000 calls)
     wf_2         :    156.40s CPU    160.99s WALL (    6000 calls)

     Called by EXACT_EXCHANGE:
     exact_exchan :  81140.87s CPU  82450.13s WALL (    6000 calls)
     getpairv     :  57100.00s CPU  57354.44s WALL (    6000 calls)
     exx_gs_setup :     79.95s CPU     80.25s WALL (    6000 calls)
     exx_pairs    :      6.77s CPU      6.89s WALL (    6000 calls)
     r_orbital    :    749.45s CPU    843.45s WALL (    6000 calls)
     totalenergy  :    336.27s CPU    338.09s WALL (    6000 calls)
     vl2vg        :    470.51s CPU    562.69s WALL (    6000 calls)
     send_psi     :   2722.19s CPU   2785.46s WALL (    6000 calls)
     sendv        :  19609.37s CPU  19767.24s WALL (    6000 calls)
     send_psi_wai :    197.04s CPU    200.87s WALL (    6000 calls)
     getvofr      :  53367.05s CPU  53597.62s WALL (  127679 calls)
     getvofr_qlm  :   1888.96s CPU   1892.31s WALL (  127679 calls)
     getvofr_boun :   3714.67s CPU   3722.96s WALL (  127679 calls)
     getvofr_gete :    298.49s CPU    298.35s WALL (  127679 calls)
     getvofr_hpot :  47035.49s CPU  47250.36s WALL (  127679 calls)
     exx_cell_der :    645.43s CPU    647.64s WALL (  133679 calls)

     Called by move_electrons:
     rhoofr       :    297.83s CPU    300.50s WALL (    6000 calls)
     vofrho       :    521.44s CPU    536.88s WALL (    6000 calls)
     dforce       :    526.63s CPU    530.99s WALL (  384000 calls)
     calphi       :      1.99s CPU      1.84s WALL (    6000 calls)
     nlfl         :      0.43s CPU      0.43s WALL (    6000 calls)

     Called by ortho:
     ortho_iter   :     20.61s CPU     20.68s WALL (    6000 calls)
     rsg          :     82.75s CPU     83.09s WALL (    6000 calls)
     rhoset       :     32.20s CPU     32.39s WALL (    6000 calls)
     sigset       :     16.26s CPU     16.36s WALL (    6000 calls)
     tauset       :     15.99s CPU     16.05s WALL (    6000 calls)
     ortho        :    167.97s CPU    168.66s WALL (    6000 calls)
     updatc       :     25.83s CPU     25.86s WALL (    6000 calls)

     Small boxes:

     Low-level routines:
     prefor       :      0.79s CPU      0.82s WALL (   24001 calls)
     nlfq         :      9.27s CPU      9.48s WALL (    6000 calls)
     nlsm1        :      3.56s CPU      3.61s WALL (    6001 calls)
     nlsm2        :      7.99s CPU      8.16s WALL (    6000 calls)
     fft          :    383.52s CPU    393.68s WALL (   48000 calls)
     ffts         :     17.65s CPU     17.80s WALL (   12000 calls)
     fftw         :    977.98s CPU    989.62s WALL ( 1536000 calls)
     fft_scatter  :   1060.37s CPU   1080.56s WALL ( 1596000 calls)
     betagx       :      0.08s CPU      0.08s WALL (       1 calls)
     qradx        :      0.00s CPU      0.00s WALL (       1 calls)
     nlinit       :      0.22s CPU      0.22s WALL (       1 calls)
     init_dim     :      0.08s CPU      0.09s WALL (       1 calls)
     newnlinit    :      0.02s CPU      0.02s WALL (       1 calls)
     from_restart :      0.00s CPU      0.00s WALL (       1 calls)
     strucf       :      5.27s CPU      5.27s WALL (    6001 calls)
     calbec       :      3.58s CPU      3.61s WALL (    6001 calls)
 
 
     CP           :    23h 7m CPU       23h31m WALL

 
   This run was terminated on:  11:17:55  13Feb2015            

=------------------------------------------------------------------------------=
   JOB DONE.
=------------------------------------------------------------------------------=
Application 2335499 resources: utime ~10664118s, stime ~153026s, Rss ~494480, inblocks ~1207181796, outblocks ~56581321
