# Water molecule

 ATOMS
  8    0.0000  0.0000  0.0000     -0.0516  0.0000 -0.0399
  1    0.0000  0.0000  1.0000      0.0176  0.0000  0.0304
  1    0.9681  0.0000 -0.2503      0.0339  0.0000  0.0094
